ITEM: TIMESTEP
10
ITEM: NUMBER OF ATOMS
333
ITEM: BOX BOUNDS pp pp pp
0 50.0
0 50.0
0 50.0
ITEM: ATOMS id mol type x y z
0 0 0 27.380953955391014 32.23630834074554 30.70016044994261
1 0 1 27.1596523954011 21.77110523517722 32.515705974721634
2 0 0 23.239983156731835 38.683003045535116 44.149487023787614
3 1 0 21.449494729531153 41.17750713986946 20.752149743726072
4 1 1 27.8727932176366 45.45019124551012 4.519489130611927
5 1 0 10.550538557535987 12.695805081082092 31.84028070780989
6 2 0 39.096980308321946 38.38617883148728 46.37158602147899
7 2 1 39.39931128224252 23.53410514206269 38.67312228812999
8 2 0 14.664340343469238 29.74715365308421 15.380517539394324
9 3 0 19.632844662060194 8.060070420639798 16.094318758624553
10 3 1 13.381653654541037 37.460493830837 22.528473029656936
11 3 0 24.590470899131518 10.583923574043377 28.80154000559518
12 4 0 31.490549448870254 27.550478737122702 40.78698490781116
13 4 1 34.04837480669674 17.946806360299814 22.42698028871319
14 4 0 34.677206694870264 6.7652437179772535 30.532115117816076
15 5 0 29.037701358710258 12.533812479800893 11.993516892399414
16 5 1 16.148224298496874 18.560671111223606 27.79192879078055
17 5 0 20.3926173159769 41.4055672034113 11.04623646626134
18 6 0 11.725432360570961 12.249786466807583 27.904347204771426
19 6 1 48.804128174759285 42.556046562066086 7.329756779911273
20 6 0 9.871493631628503 10.365147455217512 28.011931673062758
21 7 0 15.577757298471285 8.653250844069113 24.407775420005507
22 7 1 39.92778037321906 5.6372814748142615 41.22942981688355
23 7 0 14.085646546196227 37.48245060623947 28.14685652705769
24 8 0 36.76841187249387 26.069037260646557 28.99712967666764
25 8 1 2.9143652989529527 14.27479873386645 6.664470518802225
26 8 0 11.721002463224261 8.007771123399547 13.512815892260805
27 9 0 22.5344097676917 5.712299534354638 32.58785023333147
28 9 1 27.84043002186235 13.36191364632284 26.61228576076359
29 9 0 10.710921077134707 24.81386159749384 41.30258104486855
30 10 0 20.951527887124623 28.55370554262757 7.3117597304158854
31 10 1 35.40160779724745 14.553897769472687 9.630020960515138
32 10 0 30.93919712198029 4.485066975817041 33.19718695275008
33 11 0 9.566146490311898 37.489471548146426 13.263959594872087
34 11 1 36.05602710417615 47.59429229334257 12.707652999438452
35 11 0 30.736118803221043 34.24524986670825 24.529678293218424
36 12 0 19.24883207138433 44.74524580782958 19.83036980951329
37 12 1 43.11048133082044 38.40367156387443 9.131430211125279
38 12 0 41.176982613495746 24.09989240077656 35.9351563672573
39 13 0 30.86901463988958 39.285851647094574 37.9098947228353
40 13 1 36.08773843892874 25.303579270011006 47.329095163116975
41 13 0 33.19443859376452 22.195964635822705 34.638485438848
42 14 0 4.352820958805079 19.02808975682242 30.11101604394695
43 14 1 14.173146392076609 30.407219668618165 21.72788551999336
44 14 0 8.670395925072878 18.861918019626433 26.76432283825974
45 15 0 30.264786610674193 26.966744898185738 35.63946097302376
46 15 1 32.34296856401094 21.682723164495773 44.63915706982931
47 15 0 21.852537128088457 21.753235452531605 44.6282011602318
48 16 0 41.6774208215316 35.344683758449555 16.454738789811124
49 16 1 45.26861601432059 35.82681026069242 48.55918297276261
50 16 0 17.392661037684615 41.420083142337255 18.811714961931493
51 17 0 33.05802511753447 11.53797574513059 37.03057575067669
52 17 1 47.15240222553815 23.38493749954156 24.16425776064342
53 17 0 12.812795839079461 32.836221786733454 22.37503115944619
54 18 0 37.812461722277135 32.32581457264865 40.863383408866746
55 18 1 42.58948435106701 1.3887358169517796 18.610790790989288
56 18 0 38.00859179863235 6.734389446061144 24.166072746164044
57 19 0 12.202159034105422 10.359534703400753 5.077700874250332
58 19 1 39.203786171983666 11.555143233873462 16.76168036412105
59 19 0 44.61654835111491 29.11927880949547 5.535203483761241
60 20 0 9.168651481452445 34.8952805574226 29.326718840329733
61 20 1 12.070897226979659 46.20316488407804 30.76076786859673
62 20 0 23.02785238964191 33.79462294635527 35.040799333820786
63 21 0 14.022393612865226 26.81601413748396 17.212720800051745
64 21 1 9.651454187666268 46.21533215557991 36.1717179042071
65 21 0 20.629184159559756 20.517922950837644 18.890244800652127
66 22 0 10.953953363771271 20.96450032734592 13.962390877504381
67 22 1 33.783398033407146 18.683403503800708 9.481948636538304
68 22 0 9.785733300526877 7.354109377537101 27.568837993935848
69 23 0 29.441153582118293 22.733390634163914 41.87104724283444
70 23 1 48.517464805759396 10.941642305297696 33.41384849831686
71 23 0 22.40259712257924 3.5772109810921053 36.72629636502388
72 24 0 22.437931463347912 22.31230963561227 32.95378557630997
73 24 1 40.706260273122695 31.39007694418457 42.861966525277666
74 24 0 20.778244997543343 37.704436183007644 18.070875887327627
75 25 0 47.54453655888757 34.735201525427144 11.0925337346757
76 25 1 46.787053784675045 36.35022773208163 12.494756572027484
77 25 0 20.064997210476726 28.62960447971967 4.203135725835716
78 26 0 13.60016664519813 19.388875150329326 21.34449901345866
79 26 1 23.292673344368843 13.87024314860017 29.121412862457344
80 26 0 38.143551021453845 7.900803656099535 26.717069749778467
81 27 0 12.130511045194346 29.04624849747512 16.682656704051496
82 27 1 27.866948728626646 9.723478519330811 8.072829474257583
83 27 0 25.345706095383814 15.632400320435707 36.857565488922155
84 28 0 29.64025761419999 34.8903221020017 41.063031045971336
85 28 1 5.411683782397888 27.558092369189097 29.203000647000874
86 28 0 36.87402241986618 17.974049649551517 16.497180132505818
87 29 0 12.35411717936547 10.657931764460063 38.14199465242818
88 29 1 32.974397797959234 38.0721685435014 14.765814183329205
89 29 0 30.3239942243205 12.329727484204309 21.747926369685587
90 30 0 48.66814803360286 35.61240469836883 24.71653614361047
91 30 1 48.075284476323986 12.545350720853959 46.72852073398857
92 30 0 47.327736132509884 32.80862583619463 35.51332102931677
93 31 0 16.14178106537926 7.401787525574838 7.921831818781443
94 31 1 30.499965375622455 1.6475906633091655 17.62112095552079
95 31 0 22.085316028020962 42.75922182731823 28.204786705916515
96 32 0 20.388509339709234 34.19970897269375 16.17736680204697
97 32 1 7.421312028992249 40.49112789759862 9.558560388879501
98 32 0 20.82588699271116 18.826583978960592 6.086087006234091
99 33 0 43.58425721182428 46.071494498339966 40.0363803516428
100 33 1 44.68400502785401 38.562155356514225 17.150413046140603
101 33 0 32.81880508578243 7.466126580789162 49.473229051845486
102 34 0 5.076904282182214 11.808101451425857 28.904871840197313
103 34 1 0.7218705816491652 37.41719982555441 8.225129702665086
104 34 0 3.1162578380744317 13.133431176143873 26.93286129688144
105 35 0 19.89177126938275 24.48886680183185 24.887161317196597
106 35 1 40.65191789517405 32.10582685219469 20.08892994204913
107 35 0 15.735907419435335 10.992788368258891 15.393961758054159
108 36 0 18.539363004090166 20.676527644736314 30.286670262587556
109 36 1 34.03307197625791 14.711936400207598 18.97812153793471
110 36 0 15.641568261054303 32.98585060228368 7.075148997159917
111 37 0 29.286191651868773 33.7850417640909 36.41415569395279
112 37 1 13.326581017682821 19.00746972229233 29.22754308734253
113 37 0 13.521086619862299 18.62321348572298 14.746464884981906
114 38 0 18.14814019963834 8.348946407902275 33.7182201526592
115 38 1 4.547890735958157 25.914703504582693 15.999657270080874
116 38 0 22.52093292622556 42.28686243182085 28.003199518195768
117 39 0 8.083938314359044 24.676022166900964 22.624174253730022
118 39 1 26.091342511445646 33.64281671478901 14.601822085964276
119 39 0 11.609996224395566 23.306859973607256 39.14445769956093
120 40 0 12.686138618429878 44.87958514272222 26.19487869363959
121 40 1 22.85246935563178 43.73653561262527 23.347237330623734
122 40 0 32.76808973454302 26.119545717017218 39.52500821135524
123 41 0 35.180438534265846 34.30069202660157 15.48843269979768
124 41 1 37.31790414784227 31.974054740168135 12.634284108470167
125 41 0 15.684645143484765 37.76474750255253 38.72270562317175
126 42 0 22.91811687448913 34.174084718763034 39.377096899061
127 42 1 23.04257129392323 47.85327507020443 29.26353667128462
128 42 0 36.46204596554987 46.034430233295204 37.80972848041633
129 43 0 6.8780047885450974 28.912042312985616 18.29630767615835
130 43 1 3.8370541065842256 21.043577433212555 13.599289190830904
131 43 0 32.32181167076494 6.725967442201049 38.93309527130868
132 44 0 15.57277576408292 18.46814521843183 12.540854550354934
133 44 1 9.329677136563895 20.45415043520616 45.69076432114209
134 44 0 6.083942993784121 40.36962739608641 44.130746903088216
135 45 0 24.691482166790262 12.690360236036332 8.948086172206873
136 45 1 30.481572526554352 2.153109181853944 1.0735566876586324
137 45 0 26.509106439048463 27.350115054562064 2.8582663638159853
138 46 0 8.518754549408893 11.014279919573754 12.697277292183482
139 46 1 1.5365432048011307 6.5829721390328615 30.374115552131855
140 46 0 36.29581646550936 38.22172653703741 23.105918897246564
141 47 0 18.712557747519053 24.57262270105127 28.27418220850667
142 47 1 48.25636579542477 3.8621469972652585 38.832508079920174
143 47 0 23.280609829408263 9.885795491883421 34.63441134759951
144 48 0 12.360949205505293 30.099261477219024 21.799034098116724
145 48 1 3.660583456547824 14.95181219197482 2.915421560356013
146 48 0 29.512262481657793 20.735836789750298 15.943906367518125
147 49 0 33.87998045632033 38.891814023038094 12.24923327553572
148 49 1 12.707630032482346 18.38094716016545 40.205616905267064
149 49 0 39.659159262744986 40.533926322851194 44.003212157016534
150 50 0 12.636866753200964 49.02468712630134 12.332965861315374
151 50 1 5.912258374713806 46.878078878892445 12.084451214911995
152 50 0 40.42580303198752 27.741805946548883 33.729366089854466
153 51 0 37.58442123126497 19.66863653682983 17.157209719324598
154 51 1 18.76905303789769 36.70071957525321 12.075334480759116
155 51 0 11.156519563300991 26.146527345430535 14.421790706945776
156 52 0 43.268215884829466 16.915888018017597 29.722236771588953
157 52 1 47.046222060710015 31.47482239790882 42.95454026962241
158 52 0 47.02826583596548 36.11069314748543 36.93480702867647
159 53 0 36.85795381463539 40.64653944370271 18.775523121960404
160 53 1 4.525804821554652 15.07065693154914 8.204882848394734
161 53 0 16.574365626653314 8.691853062450468 24.50502615193281
162 54 0 21.05033990080134 37.157205011006354 43.514908245461896
163 54 1 14.160948606200503 32.200695237263126 29.65697759105577
164 54 0 40.22746549515216 19.06374009690245 28.070927649965945
165 55 0 13.344882347949897 23.308452019359525 19.14789069756275
166 55 1 12.532034057225207 25.27591942106705 15.922625403528993
167 55 0 17.087408634369513 26.00411851586908 32.00503864634874
168 56 0 13.707751834721584 37.4823895732471 37.585344440054854
169 56 1 5.434660600507118 12.71305076389963 21.9326068893974
170 56 0 5.223245958037463 16.19042389578456 33.20337091804532
171 57 0 28.07918542836639 27.588135282454765 35.04921136575142
172 57 1 11.153814840869547 17.46507941931325 33.52712159243823
173 57 0 35.378722541879455 24.62824751178007 19.178630195720796
174 58 0 5.885198757414196 33.18986141444063 12.053986430990511
175 58 1 18.135548859116234 26.57100663144311 44.66207083410436
176 58 0 8.075790979483143 21.918682294973344 12.651617138722598
177 59 0 15.496055124428961 24.740157211920263 17.778860888649874
178 59 1 10.97747924704148 6.6253572428179615 28.917656375133006
179 59 0 28.556494296357908 26.52588402115104 42.64661269959982
180 60 0 7.66869204055596 36.39368108398136 22.58470426820867
181 60 1 29.055221735903874 47.770798781816715 1.6935421090262412
182 60 0 33.39802727354603 42.53320321015126 19.325613588360476
183 61 0 21.067282930499108 38.14064516162586 12.094785194623805
184 61 1 21.76986325097335 26.027296396793876 34.06549227205263
185 61 0 10.279890735394444 17.390827273614985 27.329602213990217
186 62 0 25.002323885953036 45.51998535251423 34.10840399171973
187 62 1 7.363706849785641 48.81752395227877 43.120167864119075
188 62 0 21.91168482441116 38.95882255638415 30.267566513551607
189 63 0 46.05976622267491 31.36205785523074 38.196478511338384
190 63 1 45.568571278630166 3.1668822446811453 9.472471274976314
191 63 0 26.29317306462248 35.895290241721 13.477640513622497
192 64 0 17.592284751940333 34.931008242191936 25.030337477923307
193 64 1 44.43249191835949 8.52570884869423 32.91155416179831
194 64 0 27.815691281963563 4.958166076625492 34.354726633654835
195 65 0 10.061939813498663 13.148028109849383 11.740752552410516
196 65 1 3.868337308044558 44.50620363956848 36.28323301995506
197 65 0 34.179735551077485 36.54989318909708 29.078192145941397
198 66 0 17.323420796778688 41.93746183934978 26.001335502124917
199 66 1 23.170769544158578 19.366342368747638 48.25321707339878
200 66 0 12.425849251132451 17.099537526176288 37.6909772985085
201 67 0 5.936442084636435 25.762187555804054 24.326068665798815
202 67 1 14.092141487187863 12.372851854068715 25.562525868161018
203 67 0 17.345234077877155 20.191556457074665 19.039313230700987
204 68 0 40.46764404935099 12.60061551322284 12.036927258828168
205 68 1 17.711348086176773 29.506259384401904 32.27039998775411
206 68 0 19.25175772965864 44.757307736820756 21.413397047612712
207 69 0 39.20352578606047 34.95032514497411 39.98424694819488
208 69 1 48.3934265243445 43.85537287158793 37.77488679925143
209 69 0 38.40102620151529 23.885828446757884 15.305590685055925
210 70 0 11.343744958916135 23.710608578441875 36.65862871503511
211 70 1 25.467754402222912 37.80274850212319 47.39320178940299
212 70 0 11.012699762254936 13.8470424987528 34.18132218862644
213 71 0 40.25962855655272 36.71458734332058 39.67221400637999
214 71 1 48.5821347925925 20.61887313424411 19.35640659119402
215 71 0 18.14003399923408 30.640689353270187 29.299964155886027
216 72 0 39.60315966726651 6.656257437140492 20.79140338278365
217 72 1 29.489236616324238 11.822691170084214 8.941633709386444
218 72 0 39.51284088603529 5.20864502340211 19.779842019828912
219 73 0 9.736276192243173 27.950349300074546 37.9296677757248
220 73 1 20.82032999164404 42.18174882567598 6.775108851819038
221 73 0 15.459522305543032 25.884654915361935 16.510832604338887
222 74 0 30.700691693341696 21.62910830053386 27.795950287359158
223 74 1 22.37950076874899 34.23876925711226 4.989476002455418
224 74 0 28.577836173510597 11.485930371789312 31.76835267672782
225 75 0 25.783015560722465 32.18609031296543 25.208044565681305
226 75 1 6.117170649971686 20.211031157278143 20.63267203527952
227 75 0 13.446721101752813 6.279791976872685 32.67688373234686
228 76 0 12.250940176270584 34.73745119414923 27.512693679846116
229 76 1 31.507456008780963 46.93465805362454 5.986187465126346
230 76 0 40.30625812730425 13.39737090376389 21.254186653363995
231 77 0 17.5761865802406 19.847765829552714 20.162003681532525
232 77 1 10.21353607876963 1.6335460291949253 25.55307817488085
233 77 0 33.812125252039515 14.18305924511116 14.90690790332478
234 78 0 4.241627641084457 6.507085521282516 9.211125886662554
235 78 1 4.802682648043721 13.675572314283908 3.542718912584274
236 78 0 3.6974904500880887 35.29550380941167 6.9102472098887295
237 79 0 22.84051094650022 31.366518959803646 22.559744880546777
238 79 1 8.283385448307246 10.550905545177566 21.940697980779532
239 79 0 21.716541330791458 15.640319477385706 34.67027312421885
240 80 0 39.38914575884118 39.53825374684347 12.376622367635678
241 80 1 44.507635085969966 20.523457627440454 43.14751937175533
242 80 0 37.12999831010179 41.859897557940634 39.384638176147
243 81 0 18.26379240984241 22.12950580356771 20.278846367739142
244 81 1 18.487439938467478 13.239084905228879 24.729889893266723
245 81 0 30.180836050675953 13.688715979655695 25.856578465053687
246 82 0 16.779567027862274 5.999321535303188 4.109969394621729
247 82 1 47.574205180374996 0.3786345530760032 9.382000724316653
248 82 0 35.12908145955215 3.0937534702683074 35.07656497526593
249 83 0 30.649779375383766 42.963681811426056 30.78164659522098
250 83 1 15.521682693880177 27.587750704631606 46.16477925518993
251 83 0 23.345387267572942 16.9125779182374 44.48805662262309
252 84 0 17.920977175336155 11.014981514956483 15.13703065696568
253 84 1 16.054062800795414 41.844334909689785 23.090987526905792
254 84 0 20.62448289738954 23.37319569707832 38.628185941825286
255 85 0 47.43533592437992 47.048328794982005 22.494203439375557
256 85 1 47.715375605099986 39.288495988575 33.14761004209402
257 85 0 21.532942375176315 18.256872281831175 14.834641048388585
258 86 0 40.615854698139664 20.85528989673105 27.65599847131577
259 86 1 24.760253556609992 38.250434546655185 41.900699800268455
260 86 0 11.477665728207835 25.7235016932442 42.11724625579484
261 87 0 34.36137386221775 4.831315234096081 11.20325029217006
262 87 1 15.45967968724304 4.175703014092475 20.882131063220537
263 87 0 7.92792484452305 22.16894018512234 14.555239528825716
264 88 0 34.05627394031209 9.403900458879505 39.362180078304725
265 88 1 45.82135404574832 19.444423393427535 12.531990637673685
266 88 0 21.192840699959863 22.969553120325134 4.663114655590804
267 89 0 34.09735214957205 24.268486187815782 26.20283851926701
268 89 1 39.97597399553397 35.36187529220798 47.116682335557975
269 89 0 23.360534183094405 42.46126529572841 40.765760146720474
270 90 0 10.995849493991194 29.51343105116759 7.544574370964027
271 90 1 42.64472830504397 6.291477624328048 11.07872558098235
272 90 0 17.96753888182415 16.476906418976746 30.426927131516166
273 91 0 24.256267065328103 19.23926252523352 2.361589456385315
274 91 1 15.387174329252717 5.015455187487305 8.17220986822122
275 91 0 39.23272815195203 9.05390668388397 34.18202522386445
276 92 0 31.40127252787601 15.229818782473588 30.724151824836177
277 92 1 6.881672655147431 35.74507576337383 32.06779083171576
278 92 0 31.76277904877785 27.086073273368942 42.18938853551084
279 93 0 7.22053460068096 13.146524512855764 28.07798061584843
280 93 1 20.931466866206392 8.981388808977846 6.45829938331855
281 93 0 35.69727085614329 19.814359779573678 34.225426126704775
282 94 0 33.838244475784094 26.565545844422637 23.325380967427233
283 94 1 25.552344875245485 43.92182670783004 36.72023139500006
284 94 0 6.7565174502109935 37.127342871485965 43.624004550540526
285 95 0 28.323820856814073 11.167588689830243 29.906218356553307
286 95 1 8.091451934781146 17.745311168220752 46.02044429830234
287 95 0 36.15724103433431 15.101185970264995 24.61647603992339
288 96 0 25.75322066954493 46.95394780223551 11.732692615946876
289 96 1 13.625367253798013 43.199910590623745 24.358336512795216
290 96 0 36.7340668391624 18.128872670744258 26.07137784832093
291 97 0 17.691012706934245 16.38134380289939 28.16954923819793
292 97 1 21.80740223064577 18.129043525436213 44.887599720355
293 97 0 32.75307421855086 31.634899190301145 22.444044236746247
294 98 0 26.047059398950655 38.86834461348475 39.02782447082452
295 98 1 17.244598002531124 38.623134056509144 36.612182838791924
296 98 0 9.62534928240447 42.11520643210649 25.737267758423787
297 99 0 26.000100221159375 23.042385393514177 32.00373197717253
298 99 1 31.083139522416264 24.939371418654478 42.49932659051235
299 99 0 37.6229852794842 28.107037522186378 13.473748691853913
300 100 0 30.85375316047603 24.158423634942007 19.61150619496955
301 100 1 3.618126947953589 42.94852206992368 44.77080353722968
302 100 0 5.310742727755669 23.619969841480774 18.23431821954526
303 101 0 16.12093550046061 34.988298034338 8.403469352736723
304 101 1 41.45622694286762 8.480457319972272 1.8900610597106884
305 101 0 32.72070994998735 15.36304643189579 18.95178730729507
306 102 0 34.880971294407814 17.8879837224015 35.885957236298296
307 102 1 26.08043153638331 24.380963697047008 44.7338835813919
308 102 0 27.292236376348082 37.06202868458963 38.44079036756437
309 103 0 12.98781142849488 29.28696275619428 12.39739759650488
310 103 1 43.82532586641549 3.0741256605712173 16.94963103019589
311 103 0 15.232484157812822 18.29163176483482 34.71865376876649
312 104 0 21.342467702548646 7.475672304126755 15.23177279988932
313 104 1 39.69701938308547 7.477668906796948 11.582378454332115
314 104 0 12.962254523218526 28.01990245763352 17.615251962465745
315 105 0 20.802616641304212 37.07256968576814 15.321415212148315
316 105 1 36.255672185660636 40.16860612311249 11.030999861526952
317 105 0 45.505365985191546 16.438558484654973 13.62097965094579
318 106 0 13.329996065338008 23.740505680979773 29.146259966561193
319 106 1 25.597776749504785 42.09487656647631 43.53009684007089
320 106 0 14.841751905861365 34.04742615768847 15.508172392225163
321 107 0 23.542992449163886 21.352929377413695 13.09415774735859
322 107 1 25.827335832527563 36.76997480888746 5.786250441145882
323 107 0 39.267001471301015 36.740822902561156 7.8800138088457325
324 108 0 37.41887596378017 25.68992961980912 40.92605953626785
325 108 1 10.54055686195777 26.76527201759827 15.575649491112408
326 108 0 13.931093358679902 28.835511276557362 38.1305466021938
327 109 0 41.70777989220621 33.27863397143058 31.872185919012697
328 109 1 45.82143655453802 24.66049585251046 43.23841018446157
329 109 0 29.29365289890782 21.488519425943434 27.17738090564177
330 110 0 6.648156379145315 21.3244792996926 9.438261107802441
331 110 1 23.54741901147872 36.07462203112189 3.0360287291504635
332 110 0 25.348363446362118 44.3162833318201 9.49084211518801
