ITEM: TIMESTEP
101
ITEM: NUMBER OF ATOMS
99
ITEM: BOX BOUNDS pp pp pp
0 20.0
0 20.0
0 20.0
ITEM: ATOMS id mol type x y z
0 0 0 5.858983080466701 10.088472864573134 13.782994865931931
1 0 1 4.413305683159423 9.406153590615608 13.896719119926452
2 0 0 5.711951141905635 9.146045397897941 12.868223545106828
3 1 0 10.350524764530311 17.498070206780813 3.7207111519590708
4 1 1 10.447231923496593 16.7617997633341 3.044254499645861
5 1 0 8.219596099163667 12.135470040648608 5.783651636771857
6 2 0 6.785341247893511 3.2305796628130636 15.253683924397057
7 2 1 6.06015278449735 2.2896285777963334 14.830793589041555
8 2 0 5.777572234984594 2.993454657876765 13.887317839031
9 3 0 3.6838803912202778 16.23923095370371 9.322962963610285
10 3 1 3.5727115757745875 16.14793281900873 8.234334701326727
11 3 0 4.809463623516801 16.080155195153754 8.725987576479925
12 4 0 10.30294676223594 6.21652815328565 6.426904227078428
13 4 1 7.967553644685613 6.4796933452381404 2.6007663663802694
14 4 0 10.455567859977013 5.992279205956968 5.663819964098064
15 5 0 6.899937935108438 15.218115154496433 15.783464426619828
16 5 1 6.480348336562967 16.75979547175561 16.948391759947445
17 5 0 6.6900041202192035 15.873389787556562 15.529257595769716
18 6 0 2.3482002528844035 12.341532874809324 15.096336910747214
19 6 1 1.8238945320789737 12.898331085791787 15.871726865471214
20 6 0 1.6649133853020341 11.839342468356232 15.960874999724902
21 7 0 13.426593282291911 5.895103480084287 14.144850518513604
22 7 1 12.200605727867284 4.612353907582235 14.584514908529858
23 7 0 11.253393665545486 5.045720815730751 14.137885149268916
24 8 0 2.539821482470473 4.730975126848012 4.8855634441700015
25 8 1 2.0601850429488113 5.767523990039384 3.3897939980934813
26 8 0 2.6331675204426963 4.998681287716312 3.4598308930454236
27 9 0 6.810689246713209 10.280956400007714 7.101030392142707
28 9 1 3.9365549447428427 18.086159637565572 2.1472093702644317
29 9 0 7.2022193423215315 10.362181675216718 6.906027784640043
30 10 0 16.42138069680879 9.136558864501234 14.848498274990941
31 10 1 17.914688405500254 12.63090890843328 15.97538404818747
32 10 0 15.175562502239814 8.98562066756887 15.786177824390576
33 11 0 6.663028896723454 13.088976822212151 18.12108183687281
34 11 1 5.019783255813109 14.678701498334576 19.039421306624284
35 11 0 7.41461053332692 12.792347339414121 17.766731108975282
36 12 0 5.658168687867648 7.56029132145813 13.723780376197059
37 12 1 2.817603436443725 3.2090252887668926 12.440052855211293
38 12 0 5.536398206004839 7.332712920091736 13.766801129176134
39 13 0 8.980679820803894 18.42208761713087 11.255276948382864
40 13 1 7.13995632555291 19.21945142480099 13.817953381021537
41 13 0 8.477522061639352 17.04147989429698 12.17344125100935
42 14 0 17.02260908754213 16.353765027495385 12.473803334291807
43 14 1 17.886857920243468 17.167005464143696 11.968090999797154
44 14 0 16.86357453364405 16.524349879468073 11.682416084093946
45 15 0 12.957936000676451 9.525202921255124 16.69643811403941
46 15 1 12.726551005339966 8.777452541917642 17.699935656111688
47 15 0 11.70905386126864 8.685985288442978 17.851046781026422
48 16 0 15.83547189707319 13.80741433307892 18.22511297938777
49 16 1 16.997901705149363 13.495761528670933 18.357792349736588
50 16 0 16.50154570581841 12.586994240862069 17.565522192420733
51 17 0 7.192870647408086 6.373220845533363 4.732434709802703
52 17 1 4.0755831325797764 5.799337495899176 4.8657654472010385
53 17 0 6.8833338367545265 6.784656658386779 4.42657664113753
54 18 0 16.79871758153707 2.3063852738988366 8.694910897884972
55 18 1 16.866282957149437 1.2834314752210427 7.976611979944817
56 18 0 15.909628817542812 1.2589471062599338 8.152467373711533
57 19 0 17.382219710900316 3.8971848374320133 7.752045440470983
58 19 1 18.971711233006218 3.6745662852076406 8.787802081496881
59 19 0 17.02239417323098 5.362349842126811 10.498567608958782
60 20 0 7.483685454679374 13.475890930988115 9.863598939803449
61 20 1 5.1856265991653805 17.640126243466508 12.160644308124992
62 20 0 5.825198608071753 17.377231271122973 12.81355450765597
63 21 0 13.824161517322292 5.740822654024804 11.28479917034626
64 21 1 13.63242729174778 7.086048339581541 11.470143775814845
65 21 0 13.23042574114321 7.378394253868823 12.519101097696948
66 22 0 13.489534022391814 1.6023558046445652 4.4565330000213885
67 22 1 14.369294327119214 0.8420874064553111 4.507351114328598
68 22 0 13.420263196793696 0.6510887942876474 5.205102062105789
69 23 0 17.795974274770956 5.22945782248205 14.024818251420808
70 23 1 18.49022372799568 4.469968914075069 13.594661436453315
71 23 0 17.467922855632068 3.9540424789066875 13.646499145319208
72 24 0 1.0017443247477194 18.20354544296906 12.24006399465375
73 24 1 1.0963122155981115 18.412693033751463 10.915202537034958
74 24 0 2.481234443340898 17.766634102601508 10.594413517657692
75 25 0 8.631524501374281 14.686790842189025 11.823928175309414
76 25 1 10.892956759325811 14.197125977483124 12.447775624864558
77 25 0 8.613056176221741 15.195347802808266 12.03993691389226
78 26 0 10.513241766255064 4.835443552667384 11.287379461487856
79 26 1 13.15677898905467 3.8377249371280033 16.745455436628564
80 26 0 11.301514470682083 5.16777684376701 12.108170503934833
81 27 0 6.293457763953835 9.894165996928718 15.573240263674466
82 27 1 6.574602743823311 9.511924456179093 16.61223617511369
83 27 0 7.386921264474387 8.859983815110084 16.682237130717013
84 28 0 8.20323643541558 8.577332928614753 15.777658927485557
85 28 1 9.769855598395509 7.326926877751514 16.813909886189588
86 28 0 10.09384157904026 7.210532634058405 15.582259458952253
87 29 0 14.71997951516016 4.1619571459544655 5.872690267742499
88 29 1 17.132351698170016 1.7260981072269919 4.616763125142373
89 29 0 8.108758305713133 10.819213901532057 12.010549335017952
90 30 0 17.612222888362496 8.935307683082764 13.42830677187519
91 30 1 17.83318504968995 6.390835167519647 16.448690535046627
92 30 0 14.318301289707232 8.841594631089922 13.929575483058658
93 31 0 13.20685002063283 1.7874815305622505 9.332115319163554
94 31 1 17.07462648875874 4.235179195275901 16.057516377115984
95 31 0 12.736657582472942 2.359891349824014 9.310699054366395
96 32 0 12.570554641365744 12.624803065666253 5.350430189572817
97 32 1 15.30667729984797 10.402800842435756 5.715434938531025
98 32 0 12.77216428989926 13.17668419665128 4.975738936553263
