ITEM: TIMESTEP
104
ITEM: NUMBER OF ATOMS
99
ITEM: BOX BOUNDS pp pp pp
0 20.0
0 20.0
0 20.0
ITEM: ATOMS id mol type x y z
0 0 0 5.764300538246465 10.056157842046865 13.803526057947918
1 0 1 4.425172490261159 9.40780388310881 13.891591989378911
2 0 0 5.616750395272021 9.151934934014482 12.929625254432233
3 1 0 10.352624060951843 17.494442239137168 3.7133780724397525
4 1 1 10.42881784126546 16.72405943760055 3.0671994251439485
5 1 0 8.512140972375876 12.742950007743147 5.423856167198172
6 2 0 6.760666207116591 3.190082936670793 15.245463049228178
7 2 1 6.061508567193942 2.294048615375624 14.82963998156724
8 2 0 5.780689348044025 2.9631256662402765 13.914119786924456
9 3 0 3.6548552458446353 16.2401126601305 9.303933042860717
10 3 1 3.5774961118952726 16.147820228276533 8.23793022670411
11 3 0 4.761977663005713 16.08089681945144 8.687197557196225
12 4 0 10.012672437860502 6.250511622557766 5.957571035885886
13 4 1 8.003954132626397 6.474080851511774 2.652981495354718
14 4 0 10.163554181563422 6.04812847187212 5.297670064029923
15 5 0 6.869501687890395 15.333129893651055 15.890823191750316
16 5 1 6.483495859127711 16.747711584311062 16.936517783276354
17 5 0 6.669839000185843 15.951265290187454 15.612519618664447
18 6 0 2.3470192837749844 12.37271330205003 15.101632045635709
19 6 1 1.8246901244619613 12.895035382230143 15.87024063471286
20 6 0 1.6531459465155505 11.860932108162913 15.979352807381082
21 7 0 13.336349874991702 5.798469690428807 14.178513234172962
22 7 1 12.206341405314797 4.618093078495689 14.584811763502357
23 7 0 11.274108371526477 5.031853602515793 14.150088089220542
24 8 0 2.497295375849778 4.8186152579487604 4.777870192489771
25 8 1 2.064537466202876 5.7619910585349166 3.400814360533013
26 8 0 2.640689271212452 5.001075382118312 3.415380902522234
27 9 0 6.404849351124276 11.38146480534698 6.402761006643473
28 9 1 3.9906487136397377 17.94933707318396 2.2327832442529085
29 9 0 6.742542247716051 11.45084750046069 6.235084128336216
30 10 0 16.60105986027028 9.550358581650277 14.979574879677534
31 10 1 17.882052991298895 12.57711400019835 15.966456033609461
32 10 0 15.51284826622053 9.437635741123236 15.81162682181284
33 11 0 6.498234639067957 13.230693320922596 18.210483763670013
34 11 1 5.04648413916141 14.656396282436601 19.025026687489294
35 11 0 7.15249033835607 13.007946176033961 17.907430212194548
36 12 0 5.293108539514083 7.002174984268155 13.556115995564447
37 12 1 2.8619956678141647 3.2767268102644254 12.460875180537025
38 12 0 5.191001848317069 6.807556333156411 13.601158889408948
39 13 0 8.777795064060113 18.51500147776001 11.537043921511925
40 13 1 7.161598256002899 19.19923206255861 13.788997061514907
41 13 0 8.33220814158791 17.270662483779024 12.353122533003763
42 14 0 17.072093302667362 16.387479311669345 12.480338544093351
43 14 1 17.88141575472662 17.16272166973319 11.968966170132356
44 14 0 16.90117889737429 16.559215327671847 11.661847626726233
45 15 0 12.948629884476938 9.496451691276263 16.73504526078595
46 15 1 12.726428039579092 8.779169795815204 17.69766243814109
47 15 0 11.720165981737626 8.687374060137541 17.848937157855207
48 16 0 15.875538231369703 13.810218693047366 18.239250443893063
49 16 1 16.99364379270219 13.493326359028694 18.354061818312605
50 16 0 16.534873480956218 12.618149850615877 17.597428581621447
51 17 0 6.853659841611674 6.304662069803354 4.751043028347783
52 17 1 4.113484869158239 5.809699997869173 4.8604536269096
53 17 0 6.5813468031498505 6.6858696288119 4.468789355402335
54 18 0 16.813174095054855 2.2707057830248423 8.667434833683561
55 18 1 16.865384760800108 1.2867091617486799 7.979038662806124
56 18 0 15.910002082275003 1.2425562437531663 8.141118080014552
57 19 0 17.5087792400823 3.8763820537249503 7.827916845760852
58 19 1 18.950483930393844 3.6872708340099147 8.794527867405463
59 19 0 17.235243855819885 5.17955244973586 10.314899267042916
60 20 0 7.187537213953873 14.011736873022375 10.158457492020885
61 20 1 5.2046548380782385 17.60566534069549 12.141389613795814
62 20 0 5.819073172798172 17.394451908499754 12.828565651496461
63 21 0 13.814475534785252 5.803849775362737 11.29544684005017
64 21 1 13.632352859417745 7.082788039107117 11.471194077726517
65 21 0 13.241338461489718 7.367723396672889 12.491340095886029
66 22 0 13.526023831496854 1.5945591758333595 4.440967632712342
67 22 1 14.364922327530657 0.8435493640838675 4.509138615257524
68 22 0 13.459558005640401 0.6374945759982784 5.1922114430984445
69 23 0 17.825872523995617 5.22573550490058 14.016561820547906
70 23 1 18.48600022685737 4.470298434946978 13.596165055138488
71 23 0 17.50135967549865 3.9517101781561546 13.637940200356216
72 24 0 1.0033652067809087 18.214280925535874 12.18056085171019
73 24 1 1.101444542838918 18.409554496338362 10.917843274438638
74 24 0 2.3971571860234855 17.80627724664564 10.611726033643414
75 25 0 8.842544005063113 14.629526353870935 11.877068271202008
76 25 1 10.865757027675018 14.206157727596354 12.441646644972622
77 25 0 8.83728994026838 15.108085005240515 12.08483027695824
78 26 0 10.861533803936135 4.702165464569255 12.008862566703844
79 26 1 13.118745908059248 3.857634629718178 16.660326275662104
80 26 0 11.539200175939062 5.00056863984293 12.698227887658147
81 27 0 6.303756629831219 9.882332336238361 15.597518439080016
82 27 1 6.574556975656392 9.51213305207448 16.61108891345255
83 27 0 7.377332217603084 8.868467381031763 16.676275476617544
84 28 0 8.342620360467764 8.465540050323918 15.875220643776023
85 28 1 9.761275453930894 7.334144978515279 16.804605109942507
86 28 0 10.091688222108106 7.207034300394448 15.633838269610488
87 29 0 14.991629278184071 3.88768699268182 5.726341585283002
88 29 1 17.032127329298074 1.8266188829965366 4.693800795281937
89 29 0 9.43469519722387 9.483026160924826 10.924136622362399
90 30 0 17.64009258750564 8.633378972808398 13.786065031613994
91 30 1 17.801845047590927 6.423903194877559 16.405370765698066
92 30 0 14.762354188523675 8.53076795524942 14.248824483386498
93 31 0 13.741392318024062 2.1250977656242998 10.260527495703826
94 31 1 17.005887258491768 4.203080861847925 15.94173298501097
95 31 0 13.336283000467525 2.620243129393539 10.243869260610142
96 32 0 12.879215252738481 12.3678060342803 5.39516070202946
97 32 1 15.268585004135547 10.439046819926363 5.707372141694502
98 32 0 13.072992151800287 12.85375994001602 5.0599915345455475
