ITEM: TIMESTEP
105
ITEM: NUMBER OF ATOMS
99
ITEM: BOX BOUNDS pp pp pp
0 20.0
0 20.0
0 20.0
ITEM: ATOMS id mol type x y z
0 0 0 5.734509805620885 10.046626438362747 13.810659668988926
1 0 1 4.4289219002700495 9.408324215894407 13.889970224951345
2 0 0 5.586545451639542 9.153144131655818 12.948407143229495
3 1 0 10.353156354981566 17.49267869333399 3.711016885034922
4 1 1 10.423050400881733 16.712260169917027 3.074398810443752
5 1 0 8.603894968066697 12.933503999744415 5.311023835318252
6 2 0 6.753015078087758 3.177193012074711 15.243155993206335
7 2 1 6.061941523818716 2.295462660937325 14.829269349561317
8 2 0 5.781461617286899 2.9533518767812104 13.922401489759318
9 3 0 3.644839741541608 16.24047086584433 9.297946330320222
10 3 1 3.5790367378477623 16.147785027387098 8.23910205030431
11 3 0 4.747356857925475 16.081038972020977 8.674331824231247
12 4 0 9.92202016615522 6.261205584792804 5.8113938905241875
13 4 1 8.015286402144666 6.472335780123207 2.669242776479405
14 4 0 10.072954405245222 6.065364755792218 5.18362034894128
15 5 0 6.860213648933388 15.368455171501934 15.925224088844443
16 5 1 6.484486763342026 16.74390746863522 16.932807786297282
17 5 0 6.663185388557383 15.976642820196549 15.637707997584121
18 6 0 2.346866743671081 12.383154299239342 15.10307635882838
19 6 1 1.8249511024977823 12.89394797137306 15.86975185536141
20 6 0 1.6490449787484935 11.867903336720369 15.985726546690433
21 7 0 13.308093123833316 5.768099304184074 14.189158482844135
22 7 1 12.208363421447402 4.619701257052747 14.585424642501543
23 7 0 11.28072332687252 5.0273679261042785 14.154033413922653
24 8 0 2.4836349254732286 4.846396496876136 4.744590026790193
25 8 1 2.0659702859209816 5.760219334737671 3.404349813879548
26 8 0 2.643048503586187 5.0021585658687435 3.4001006960826166
27 9 0 6.278527960259568 11.724106276472321 6.185343367639947
28 9 1 4.0074898378451245 17.90673957988838 2.259425208129161
29 9 0 6.5993994197123085 11.78977044079232 6.026218360504403
30 10 0 16.65699278151799 9.679069840009625 15.020319982631795
31 10 1 17.871876269479042 12.56037130745637 15.963702694638428
32 10 0 15.618003997836931 9.578608761686201 15.81960463490574
33 11 0 6.446475920723007 13.273890502049271 18.23836297287104
34 11 1 5.0548192870912 14.649470034993767 19.02053815946507
35 11 0 7.070994118315518 13.075724402297224 17.95128890499412
36 12 0 5.179396561885242 6.828414798746852 13.503651641982598
37 12 1 2.87581607916412 3.2978053027996523 12.467356016256758
38 12 0 5.083524183256021 6.644036012024989 13.54987595803532
39 13 0 8.714533330690005 18.544165338195683 11.62486906659366
40 13 1 7.168344591594882 19.19292689173371 13.779960308032605
41 13 0 8.286856112436794 17.341883374025993 12.409238231406226
42 14 0 17.08830550772024 16.3981552468594 12.483500674895666
43 14 1 17.879656368707767 17.161336882285863 11.969248871300929
44 14 0 16.913121843720468 16.57070971613932 11.654151621866873
45 15 0 12.945669474783543 9.487432456907957 16.747157981982156
46 15 1 12.726390029243086 8.779706659317819 17.69695245259874
47 15 0 11.72368190815912 8.687845569268228 17.848229033828282
48 16 0 15.888216410651175 13.811563090359911 18.244040838479613
49 16 1 16.992276841179212 13.492538182532353 18.35284966212876
50 16 0 16.54582795493472 12.627648778021651 17.60737644447414
51 17 0 6.747980452517023 6.282858545700383 4.757116002890999
52 17 1 4.125251754199868 5.812923213986239 4.858776093175861
53 17 0 6.487062324688562 6.655573890615003 4.481587172350999
54 18 0 16.81811238239281 2.2595825946708676 8.658782798731568
55 18 1 16.865076914058957 1.2877595367707784 7.979816557129086
56 18 0 15.910154456909373 1.237018883351301 8.137279269435458
57 19 0 17.548353253125065 3.869830994820666 7.851541794310417
58 19 1 18.943837946572636 3.6912525816774693 8.796644789238862
59 19 0 17.301923816580718 5.122275626801002 10.257338160865432
60 20 0 7.094644411346897 14.17977674070248 10.250881406015768
61 20 1 5.210638840004757 17.59484577158133 12.135350730541388
62 20 0 5.816983816935773 17.400120759205883 12.83339032031602
63 21 0 13.811391439704611 5.823633642171033 11.298911211806846
64 21 1 13.632331038185521 7.081775536020057 11.471516198457122
65 21 0 13.244784058113538 7.364209683134199 12.482612558199278
66 22 0 13.53796262056979 1.592532621051493 4.435486998595855
67 22 1 14.363531620030694 0.8440429616582207 4.509724062709332
68 22 0 13.472305188238007 0.6325343528447187 5.18844219732136
69 23 0 17.83573454037386 5.224951438804917 14.014002342067053
70 23 1 18.484591645929928 4.470401199356649 13.596700817138576
71 23 0 17.512106170924486 3.9504827970644225 13.635026615856384
72 24 0 1.0038348394426009 18.217676618794584 12.161852930766823
73 24 1 1.103057566290831 18.40856748217079 10.918676549057642
74 24 0 2.3707596295696423 17.818731387880387 10.61712368284096
75 25 0 8.908162705726072 14.610877104859167 11.893223570301013
76 25 1 10.85727491065188 14.208979165692211 12.439737400988294
77 25 0 8.907404946968132 15.081584545807106 12.099211947454666
78 26 0 10.970029685744878 4.660611740927839 12.23367505761865
79 26 1 13.10666446509033 3.8640319183919316 16.633281436340617
80 26 0 11.613185642016903 4.948676518878381 12.881768584112711
81 27 0 6.307109649005306 9.878530466883626 15.605099219117143
82 27 1 6.574533224186179 9.51220320827348 16.610742499770577
83 27 0 7.374310169280702 8.871165057092798 16.674240575392435
84 28 0 8.386252865047608 8.43052823230533 15.905967849812104
85 28 1 9.75856812603244 7.336422631768762 16.801670559650514
86 28 0 10.091390552347649 7.205650097105422 15.650116451625184
87 29 0 15.073537245485406 3.8049782985818656 5.6821429330308035
88 29 1 17.00089775733522 1.8578839673443912 4.717832559315014
89 29 0 9.849962341665746 9.064529280591172 10.583749289619263
90 30 0 17.6482949202969 8.53923371452344 13.897486427937443
91 30 1 17.79216298009838 6.434491104171098 16.391902662043197
92 30 0 14.901290215920717 8.433688569019923 14.3482971352494
93 31 0 13.907824571478068 2.230430470870447 10.549581152916186
94 31 1 16.984428088811132 4.1928102444818185 15.905603300160594
95 31 0 13.523110867645746 2.701402281976672 10.534449937372447
96 32 0 12.975010133068766 12.287593514935814 5.409296614898134
97 32 1 15.256724229956474 10.450338523396704 5.704858347445684
98 32 0 13.166973723654374 12.753310454236578 5.086068590455439
