ITEM: TIMESTEP
106
ITEM: NUMBER OF ATOMS
99
ITEM: BOX BOUNDS pp pp pp
0 20.0
0 20.0
0 20.0
ITEM: ATOMS id mol type x y z
0 0 0 5.705529708297287 10.037723310342464 13.817989873410577
1 0 1 4.432578408692762 9.408830639120122 13.88838784713384
2 0 0 5.557019390663058 9.153944167175739 12.966361582141904
3 1 0 10.353602532622578 17.490631180533175 3.7086990768770027
4 1 1 10.417459165292199 16.700832437338875 3.0813849093992385
5 1 0 8.692916309471812 13.118397380931466 5.201560624354999
6 2 0 6.745639263741111 3.164581467360064 15.241066794591532
7 2 1 6.062365858170147 2.2968500201119078 14.82890481036153
8 2 0 5.782098600846136 2.9437244179963784 13.930369821604549
9 3 0 3.634629529687886 16.24086134034883 9.29211529143333
10 3 1 3.5805533456980925 16.147751049885976 8.240264354429188
11 3 0 4.733314980465973 16.081127246896916 8.66145915874179
12 4 0 9.834224286828912 6.271621930879713 5.670112239413918
13 4 1 8.026238241155392 6.470650709578418 2.6849628659742963
14 4 0 9.985594144088394 6.081918940560859 5.073325946988309
15 5 0 6.851350697252734 15.402303307546967 15.959058020537281
16 5 1 6.485450989649125 16.74020574354699 16.9292125392396
17 5 0 6.656529636220472 16.00185213408936 15.661637099646425
18 6 0 2.346831768336788 12.393641159785727 15.104366963056007
19 6 1 1.8252105257868831 12.89286360909884 15.869265305126357
20 6 0 1.644848458033369 11.874780353608841 15.992218235195077
21 7 0 13.280709737659544 5.738591105923435 14.199545957724357
22 7 1 12.210460335814913 4.621136327771597 14.586322566027688
23 7 0 11.2872171614046 5.022928869788727 14.157937713735686
24 8 0 2.470190405861521 4.873525529565032 4.712577051729442
25 8 1 2.067401214129787 5.758478329296555 3.407822931870435
26 8 0 2.6453196034791664 5.0034104508635115 3.3845687754304628
27 9 0 6.1564420563148 12.055267930531489 5.975208776274268
28 9 1 4.023766347933709 17.865570055545724 2.285174025458702
29 9 0 6.46105461440319 12.117325732354152 5.824358939006526
30 10 0 16.711091016760133 9.803402055379777 15.059627587463094
31 10 1 17.862030836224463 12.544192292480663 15.961056659575389
32 10 0 15.71968395130447 9.714999997875529 15.827377432929273
33 11 0 6.396139655629866 13.315085402824744 18.265351738649244
34 11 1 5.062888830340508 14.642786454837744 19.016195673776217
35 11 0 6.992329495014608 13.141628904023948 17.993697111252185
36 12 0 5.0694626661128845 6.6604984633953865 13.452771371890593
37 12 1 2.889172996552625 3.3181776877879523 12.473618438682177
38 12 0 4.979679099924397 6.485973561281716 13.500501950972263
39 13 0 8.653346719058522 18.572533635615667 11.709787870926592
40 13 1 7.1748702860313065 19.186826764859916 13.771213266687214
41 13 0 8.242941141107721 17.41060338034092 12.463606987568303
42 14 0 17.104433159841104 16.408584154207002 12.487174833835955
43 14 1 17.877918053468886 17.159968888092042 11.969527651273662
44 14 0 16.924812403068344 16.582182870293664 11.646006032871774
45 15 0 12.942774192478703 9.478681123847048 16.75891186774764
46 15 1 12.726353546309964 8.780226607459202 17.696265239465443
47 15 0 11.727108587137776 8.688322311876078 17.847517167067544
48 16 0 15.900584519928215 13.813120929768877 18.2488850761554
49 16 1 16.9909328222305 13.49176001627328 18.351649891510476
50 16 0 16.556735948161418 12.63671723234553 17.61699889366023
51 17 0 6.645816425009963 6.261486217831967 4.763171187194781
52 17 1 4.136605197545998 5.816036863294345 4.8571401525129945
53 17 0 6.395770813189568 6.626591747040901 4.493727171102465
54 18 0 16.82312373564349 2.248825335131283 8.650368269059944
55 18 1 16.864763858919776 1.2887906888120293 7.980580094685822
56 18 0 15.910323320235793 1.2314362932724565 8.133406379780496
57 19 0 17.586713511338868 3.8634351015345403 7.874344636631732
58 19 1 18.937393053371938 3.6951158079939654 8.798703175059767
59 19 0 17.36659676822993 5.066733784652244 10.201533418651785
60 20 0 7.004512303940567 14.342799747532208 10.340521028919452
61 20 1 5.216454037970214 17.584342845848358 12.129493549457528
62 20 0 5.814856231302724 17.4057588949468 12.838109209063797
63 21 0 13.808373786789488 5.842836033780693 11.302341361881236
64 21 1 13.632310773203772 7.080798653616228 11.471824599326808
65 21 0 13.248138842716816 7.360710527122231 12.474135423169264
66 22 0 13.549822722315938 1.5907862578170409 4.429845404199851
67 22 1 14.362171645728177 0.8445424325462215 4.510306408393884
68 22 0 13.484912070290045 0.6273448673020444 5.184927575822507
69 23 0 17.845565625987337 5.224393563040145 14.011533934539479
70 23 1 18.483176427473694 4.4704999395365554 13.597258011911086
71 23 0 17.522675484617963 3.949026468493447 13.632077417557515
72 24 0 1.0042656309589804 18.220988463054816 12.143678618669096
73 24 1 1.1046245665589458 18.407608279015957 10.919487950221724
74 24 0 2.345133421728123 17.830826507788235 10.622338692545346
75 25 0 8.97154087908898 14.592336141469401 11.908595619756673
76 25 1 10.849067962405455 14.21171194978022 12.437891290255994
77 25 0 8.97535831496211 15.05639402892867 12.113366195633523
78 26 0 11.074887669350645 4.620403429135699 12.451023495177814
79 26 1 13.094821084203556 3.8703554290853557 16.60676594498316
80 26 0 11.685044790356903 4.898473294861362 13.06004329180038
81 27 0 6.310429115816612 9.874793112776961 15.612435938735748
82 27 1 6.574505526079091 9.512273615987828 16.610413319147103
83 27 0 7.371370601837116 8.873801921894447 16.672178080761626
84 28 0 8.42852518552075 8.396594831065492 15.935900927535581
85 28 1 9.755932502504166 7.338640211523036 16.79881263243933
86 28 0 10.091316373754763 7.204142778372248 15.665979964647768
87 29 0 15.151312615043693 3.7264370664480126 5.640016125988371
88 29 1 16.9707006469895 1.8880822698092234 4.741088791199494
89 29 0 10.252566478912808 8.65878108152259 10.253680314776773
90 30 0 17.656033471735633 8.448180106334666 14.005190578858382
91 30 1 17.782829168316333 6.4448343515651185 16.378891688289364
92 30 0 15.035899800118674 8.339703929672329 14.444496743189568
93 31 0 14.068693480541416 2.3323155193341734 10.828943497023287
94 31 1 16.96367571875618 4.182783574429873 15.870641492474858
95 31 0 13.703735202857247 2.779898555453647 10.81531514748453
96 32 0 13.067399282013 12.20992113701564 5.42310481358354
97 32 1 15.24526003741398 10.461256262988535 5.702426577984971
98 32 0 13.258015836021315 12.656304494598917 5.111160667409418
