ITEM: TIMESTEP
107
ITEM: NUMBER OF ATOMS
99
ITEM: BOX BOUNDS pp pp pp
0 20.0
0 20.0
0 20.0
ITEM: ATOMS id mol type x y z
0 0 0 5.677320971556098 10.029458613188073 13.825550141866563
1 0 1 4.436147390381948 9.409323920045168 13.886842606217098
2 0 0 5.5281252028191865 9.154311443564136 12.983490746065586
3 1 0 10.353960414068 17.488295068060605 3.70642726750073
4 1 1 10.412040335367323 16.689768251902805 3.0881623399623783
5 1 0 8.779267998980195 13.297762619332955 5.095390004445807
6 2 0 6.738534111399515 3.1522355914918823 15.239197595121455
7 2 1 6.062781992503894 2.2982121637588135 14.828545923762753
8 2 0 5.782598398355937 2.934232261381035 13.938029871232446
9 3 0 3.62421044050019 16.24128420266637 9.286427406563691
10 3 1 3.582047494801621 16.147718343685217 8.24141929661701
11 3 0 4.7198412465124395 16.081160548023345 8.648557208115625
12 4 0 9.749186809382747 6.281784909734419 5.5336300830311576
13 4 1 8.036818431926527 6.469024433695233 2.7001554185864847
14 4 0 9.901429271409437 6.09778636440719 4.966667355569773
15 5 0 6.842914834510544 15.43467818884549 15.99240015939509
16 5 1 6.486389829084499 16.736601354790377 16.925727072819488
17 5 0 6.649848749198288 16.02696956354494 15.684312164590757
18 6 0 2.346913066386357 12.404186032637389 15.105507035889623
19 6 1 1.8254686862601075 12.891780926474377 15.868780402391256
20 6 0 1.6405527148086005 11.881572961116833 15.998833993038936
21 7 0 13.254184505813804 5.709917522199116 14.209690222932137
22 7 1 12.21256983053754 4.6224172089885665 14.587298267323362
23 7 0 11.293604022266868 5.018523075673468 14.16180858137879
24 8 0 2.456939556616586 4.9000359688304975 4.681817971298781
25 8 1 2.068834613719722 5.756765008527229 3.4112369653182633
26 8 0 2.647493340603711 5.004847431594621 3.3687742878905356
27 9 0 6.038479947771909 12.375218745252834 5.772190803249388
28 9 1 4.039491538173894 17.825794857209168 2.3100507356350097
29 9 0 6.327406809149844 12.433782671681895 5.629335566332407
30 10 0 16.76343165823313 9.923455798872157 15.097501600331846
31 10 1 17.852507711350345 12.528563339449432 15.958516532041731
32 10 0 15.817949920407084 9.84693175862732 15.834976744348403
33 11 0 6.347131516281137 13.35426611097652 18.291487062150697
34 11 1 5.07070084223486 14.63634055789309 19.01199513079898
35 11 0 6.916462040334265 13.205751989488112 18.034683091520716
36 12 0 4.963216144424137 6.498299445439716 13.403406329482477
37 12 1 2.902077344142919 3.3378607265298794 12.479667437802515
38 12 0 4.879382477078735 6.33322841703714 13.453025829178932
39 13 0 8.594189131209815 18.60017098033406 11.791858439563713
40 13 1 7.181181448328236 19.180925993714556 13.762747501105109
41 13 0 8.20040938073544 17.47684728831239 12.516303577183452
42 14 0 17.12050935559892 16.41878528477076 12.491374503210658
43 14 1 17.876197168084172 17.158614924232104 11.969802812570398
44 14 0 16.93627575230432 16.59365979451977 11.637392500193533
45 15 0 12.939941279542774 9.470191604262741 16.77031513298622
46 15 1 12.726318630078381 8.780730000121604 17.695600345531503
47 15 0 11.730447982880651 8.688804841880149 17.84680083710097
48 16 0 15.912656895770768 13.81489816705134 18.253791764571698
49 16 1 16.989610071541616 13.490990898365592 18.350460629929767
50 16 0 16.567614681423688 12.64535961195973 17.626304207297828
51 17 0 6.54709162457331 6.240485782615168 4.769241885095718
52 17 1 4.14755365393684 5.819043505566933 4.855543134163076
53 17 0 6.307376380980145 6.5989397813383155 4.505187891162545
54 18 0 16.828215980406135 2.2384257429426535 8.642183974926091
55 18 1 16.864445020441874 1.289803530305796 7.981329788843673
56 18 0 15.910510201398221 1.2258038722755298 8.129495960442277
57 19 0 17.623906141974768 3.8571725775200636 7.896323016919834
58 19 1 18.931142610794556 3.698864305387256 8.800704810579381
59 19 0 17.429322540248336 5.012887484427473 10.147458586888087
60 20 0 6.917076048231795 14.500921391865626 10.427438145461604
61 20 1 5.222105122942198 17.574149333671205 12.12381491692681
62 20 0 5.812682757426812 17.411368501637394 12.842713046349408
63 21 0 13.80541974336186 5.8614701129835325 11.305741771925417
64 21 1 13.632292134728575 7.079856804305387 11.472119333589959
65 21 0 13.251405020487873 7.357222097413083 12.465903507454847
66 22 0 13.56162273641749 1.589317724978878 4.4240339567366105
67 22 1 14.360841135274423 0.8450494454327514 4.510886865662493
68 22 0 13.497398011416252 0.6219169208617337 5.181663370564381
69 23 0 17.855376889989707 5.224061714048966 14.00915419015426
70 23 1 18.481750708939476 4.47059425634046 13.59783934975819
71 23 0 17.5330786275116 3.9473379295868205 13.62908978512168
72 24 0 1.0046552540841123 18.22422010405336 12.126025277745272
73 24 1 1.1061468089885507 18.406676094620753 10.920278228774553
74 24 0 2.320260222742386 17.842571849481363 10.62737177708161
75 25 0 9.032732230174595 14.573829872280765 11.923172079918272
76 25 1 10.84112804869316 14.214358955618932 12.436106552360094
77 25 0 9.041226590069718 15.032541016659355 12.127333479554128
78 26 0 11.176175695898946 4.581495503433889 12.661076762209529
79 26 1 13.083176553468972 3.876637795019791 16.58069184392207
80 26 0 11.756334725341718 4.849219543749984 13.23758465057013
81 27 0 6.31371832866637 9.87111695966826 15.619533535106923
82 27 1 6.574473955079763 9.51234427556323 16.61010110827463
83 27 0 7.3685115108724935 8.876379896784423 16.6700858274119
84 28 0 8.46945827827472 8.363720616788836 15.965055673434033
85 28 1 9.753366515021199 7.340799593489339 16.79602781808425
86 28 0 10.091475131235796 7.202503226817878 15.68145097739337
87 29 0 15.225035765632347 3.651982599623967 5.599828286570393
88 29 1 16.94151119275806 1.9172367486641364 4.763592346961779
89 29 0 10.642806067635787 8.265478629862837 9.933692614090312
90 30 0 17.663358630306146 8.360149198608728 14.109263492447871
91 30 1 17.77382789330807 6.454920329087759 16.366324443115175
92 30 0 15.166268292277273 8.24873645380318 14.537515992788027
93 31 0 14.224139499561968 2.430814093974214 11.09883925877157
94 31 1 16.943622660828986 4.173014967883819 15.83681911159425
95 31 0 13.87829183519559 2.855802881250618 11.086693101500618
96 32 0 13.15643245926419 12.1346934852358 5.436622804588111
97 32 1 15.23418279168149 10.471809576841856 5.700074585556837
98 32 0 13.346222911732962 12.562684883828931 5.135266195100217
