ITEM: TIMESTEP
108
ITEM: NUMBER OF ATOMS
99
ITEM: BOX BOUNDS pp pp pp
0 20.0
0 20.0
0 20.0
ITEM: ATOMS id mol type x y z
0 0 0 5.649900874005974 10.02186039700609 13.833360189168262
1 0 1 4.439627075500392 9.409803926755048 13.885335370379078
2 0 0 5.499873428887219 9.154219932453634 12.999760907339923
3 1 0 10.354226837450142 17.48567087015659 3.7042095591523645
4 1 1 10.406801406953125 16.679082619170632 3.0947215534624184
5 1 0 8.862833298274138 13.471359135287969 4.9926566351440655
6 2 0 6.731709735715027 3.1401682311095076 15.237554495770992
7 2 1 6.063189488047165 2.299547742730885 14.82819299183662
8 2 0 5.782958033002354 2.924884014176641 13.945370813039956
9 3 0 3.6135899125301325 16.241738661553395 9.280881611981824
10 3 1 3.5835176657519323 16.14768702552454 8.242566688180167
11 3 0 4.706952503413284 16.081137694173975 8.635629902077236
12 4 0 9.666981129237803 6.291700744144921 5.402138522860558
13 4 1 8.047013792530194 6.467459139861765 2.714802570235959
14 4 0 9.820595883593457 6.112925926468253 4.863741428964686
15 5 0 6.834926239109385 15.465515115403765 16.025262215226896
16 5 1 6.487302687297345 16.733096452695605 16.922353255360708
17 5 0 6.6431318827624795 16.052025045931938 15.705692076172117
18 6 0 2.34710915427093 12.414779300922115 15.106497433326066
19 6 1 1.825725341754613 12.890700788357412 15.868297565559
20 6 0 1.6361629614196118 11.888276961247403 16.00556626592775
21 7 0 13.228552827357131 5.682115137646601 14.219568386648271
22 7 1 12.214066386246866 4.623811323426077 14.586446982839004
23 7 0 11.299878405805217 5.014153210604193 14.165613015316985
24 8 0 2.4438872053902974 4.925907837721015 4.652364343652528
25 8 1 2.0702721413151717 5.755079832459287 3.4145881260266733
26 8 0 2.6495559096685923 5.006483066319932 3.3527392257605073
27 9 0 5.924772625830268 12.683562087080611 5.576546293323068
28 9 1 4.054646003178977 17.78746304873218 2.33402465042618
29 9 0 6.1986354917488375 12.738752857980712 5.441382326793563
30 10 0 16.8139885319967 10.039081837442138 15.133862401111859
31 10 1 17.843317549841764 12.513503234164844 15.956086309292346
32 10 0 15.912655986248444 9.974254525399424 15.842422833765612
33 11 0 6.299450581061864 13.391333066011427 18.31675415469715
34 11 1 5.078247408362767 14.63014070060577 19.007941048091347
35 11 0 6.843519524196829 13.268059887412536 18.074189160940552
36 12 0 4.860787058079105 6.342029602801174 13.355584110085138
37 12 1 2.9145132242708267 3.3568302833880463 12.48549540418411
38 12 0 4.782758927645044 6.18597495703262 13.407541650022479
39 13 0 8.537137701067868 18.62709103120295 11.870967005007186
40 13 1 7.187271215286182 19.17523101071087 13.754571942278128
41 13 0 8.159292530931882 17.54049782012975 12.567297973535075
42 14 0 17.136535095729993 16.42875780289106 12.496104008714296
43 14 1 17.874493476455978 17.157274914588637 11.970074091611151
44 14 0 16.94751467776362 16.605142565741033 11.628310898190524
45 15 0 12.937173820763512 9.461975481718666 16.7813522588553
46 15 1 12.726285396152187 8.78121614772561 17.694958703948387
47 15 0 11.7336951014675 8.689292735339368 17.846080787284492
48 16 0 15.924423086439335 13.81689707082589 18.25875940202326
49 16 1 16.988309664384154 13.490231416091355 18.349282368024827
50 16 0 16.578459098598106 12.653562415352763 17.635281407733086
51 17 0 6.451935605746401 6.219834406186279 4.775353959717653
52 17 1 4.158082818749805 5.821939454218054 4.853985559893107
53 17 0 6.221962218176898 6.572698744317254 4.515920020188242
54 18 0 16.83338651577228 2.2283971321253917 8.634239598813986
55 18 1 16.864120481291422 1.2907968884787027 7.9820645942640365
56 18 0 15.910716223470441 1.22012859003718 8.125552599408325
57 19 0 17.65990142549744 3.8510333654420954 7.917427569070809
58 19 1 18.925092789672735 3.7024941377428906 8.802647291676681
59 19 0 17.4900319767595 4.960809424540057 10.09520138037439
60 20 0 6.832452549187976 14.653928138724876 10.511513356352305
61 20 1 5.2275850315776795 17.564279214082788 12.118323464962138
62 20 0 5.810460665540451 17.416940352374578 12.84718400437452
63 21 0 13.802532568213566 5.8795102599536895 11.309110009578943
64 21 1 13.6322752335405 7.078951381132583 11.472399848090017
65 21 0 13.25457800665594 7.353747697197489 12.457928772421832
66 22 0 13.57335713721504 1.5881274857345271 4.418055804482551
67 22 1 14.35954156329927 0.8455646735908326 4.511465483150326
68 22 0 13.509756924973818 0.616252610962348 5.178651882024947
69 23 0 17.865159041172895 5.223956441040315 14.006865641277088
70 23 1 18.480313367272796 4.470683495299266 13.598446509576466
71 23 0 17.54330490787027 3.945417389622503 13.626067180047231
72 24 0 1.0050005799128965 18.227368455180034 12.108917019874779
73 24 1 1.1076223877626905 18.405772077982938 10.921046493368374
74 24 0 2.296173453531303 17.853952222606615 10.632213135947188
75 25 0 9.091664577282254 14.555314832992948 11.936907142704351
76 25 1 10.833463210682927 14.216917669285497 12.434385064512787
77 25 0 9.104953346883756 15.010109191119314 12.141129550141558
78 26 0 11.27378510254633 4.543922234792793 12.86362650102709
79 26 1 13.071726235542778 3.882893621514459 16.555058171728646
80 26 0 11.837216373586228 4.796329140762354 13.445148535598724
81 27 0 6.316973810445713 9.867506295156835 15.626382169159571
82 27 1 6.574438604944503 9.512415063415098 16.60980628518123
83 27 0 7.365736827300286 8.87889555827343 16.667965932136347
84 28 0 8.508988125021375 8.331954630697542 15.993408033586466
85 28 1 9.750873445455888 7.342898164012442 16.793318284171956
86 28 0 10.09187621436224 7.200725473831684 15.696520084589217
87 29 0 15.29463227148847 3.581690847966583 5.561515335387824
88 29 1 16.913365352980247 1.9453095752060572 4.7853200901131085
89 29 0 11.020168021778979 7.885136595207917 9.624215861616664
90 30 0 17.6703107580257 8.275253751529092 14.20957462085333
91 30 1 17.765162997788014 6.46471878071077 16.354213600566588
92 30 0 15.292206759656422 8.160895137939841 14.627256419306885
93 31 0 14.373982442004824 2.5257805981703587 11.358931757408344
94 31 1 16.924302324078894 4.163535709869082 15.804177770495109
95 31 0 14.04655211230415 2.9290322808721605 11.34824808335791
96 32 0 13.241969805214783 12.061965720952983 5.449864714124379
97 32 1 15.223505804644441 10.481986192562694 5.697804966093057
98 32 0 13.431521837298302 12.472592831597499 5.158329497557638
