ITEM: TIMESTEP
109
ITEM: NUMBER OF ATOMS
99
ITEM: BOX BOUNDS pp pp pp
0 20.0
0 20.0
0 20.0
ITEM: ATOMS id mol type x y z
0 0 0 5.62912824955071 10.016439467751706 13.839631886766044
1 0 1 4.442271151670826 9.41016809293102 13.88418968923013
2 0 0 5.478344568152141 9.153803610022862 13.011791585329362
3 1 0 10.354366834487108 17.483423757084495 3.702527813397594
4 1 1 10.402856495440227 16.67104436225169 3.0996654951642015
5 1 0 8.925819227955037 13.602220106755032 4.915232365732638
6 2 0 6.726604223780563 3.13098173609467 15.236440542539809
7 2 1 6.063500241743053 2.3005675550454243 14.827922709859312
8 2 0 5.783136211127858 2.917715455368481 13.950850670619104
9 3 0 3.6051845246940517 16.242114340374886 9.276664890708588
10 3 1 3.5846439843693148 16.147663713785683 8.24345435604654
11 3 0 4.697347195187373 16.081079145227427 8.625551519239767
12 4 0 9.605052075429262 6.299250069680953 5.303467556841044
13 4 1 8.054667213881036 6.4662855877893906 2.7258039156028095
14 4 0 9.760141231659583 6.124162290462513 4.786340484873962
15 5 0 6.829040140345834 15.488380031123397 16.05051268247721
16 5 1 6.487994421463183 16.73044024610713 16.91980745199188
17 5 0 6.637869316945417 16.071508558391645 15.721385877991919
18 6 0 2.3473424527732427 12.423053181273787 15.107162468491824
19 6 1 1.8259238904048702 12.889862388759239 15.867923470948021
20 6 0 1.6326825551949562 11.893429571346253 16.01088454963522
21 7 0 13.208856389477107 5.661419708634667 14.225995684728394
22 7 1 12.132799777217844 4.660020581131959 14.331567057828709
23 7 0 11.3034411222263 5.011734719104937 14.167710845891486
24 8 0 2.4338713157032434 4.945579731545241 4.630401798877702
25 8 1 2.0713953817885566 5.753788375097721 3.417149446950398
26 8 0 2.6510729647332876 5.007906858873015 3.3401011324440084
27 9 0 5.839376099815347 12.915050609755815 5.429676642238011
28 9 1 4.066023106046914 17.758685562645308 2.352022952450646
29 9 0 6.101992518418383 12.967707698125746 5.300266511767991
30 10 0 16.852059696454216 10.125834304227022 15.161031619377745
31 10 1 17.836407870671135 12.502197744452534 15.954275595414904
32 10 0 15.983741384502279 10.069984641113132 15.848127128057074
33 11 0 6.263272803442814 13.418610584175802 18.335796405118398
34 11 1 5.083927667519445 14.625495340893401 19.00489250061528
35 11 0 6.788911559951339 13.31525178903924 18.10384836976998
36 12 0 4.7838595942452296 6.22475168549932 13.319470588668842
37 12 1 2.923849308867598 3.3710723249629706 12.489869490825821
38 12 0 4.710244511482099 6.075375540817986 13.373622528342647
39 13 0 8.494279464097271 18.647549520687885 11.93036015781065
40 13 1 7.191849467759414 19.170948662301015 13.748420393566947
41 13 0 8.128312951866496 17.58811598181117 12.605764423052827
42 14 0 17.148975239153764 16.436357993025425 12.500165008960655
43 14 1 17.87317927512421 17.156241637498454 11.970282320487328
44 14 0 16.956106279516668 16.614086967261162 11.620908918772367
45 15 0 12.935068246186017 9.455782383339912 16.789672578408993
46 15 1 12.726260802815913 8.781581803603972 17.694476411425292
47 15 0 11.73615362821121 8.689676049869183 17.84551813170878
48 16 0 15.933357218681339 13.818612266894169 18.262668629531802
49 16 1 16.987314044039046 13.489647448077665 18.34837328526293
50 16 0 16.58687280777642 12.659625672091043 17.642028470675864
51 17 0 6.3804927334553785 6.203986751476334 4.780162419839412
52 17 1 4.165970784093537 5.824112437022421 4.852801451599512
53 17 0 6.157648597085535 6.553335998172101 4.523718993909833
54 18 0 16.837465327875574 2.2208637506100652 8.628232874840197
55 18 1 16.863863856125985 1.291555481051141 7.9826252678220175
56 18 0 15.910890955294196 1.2156850439477205 8.122462670169998
57 19 0 17.687049347734977 3.846334620408306 7.933199433774535
58 19 1 18.920530366573388 3.705232566263522 8.80411558664076
59 19 0 17.53580811064052 4.921579055520536 10.05587800250192
60 20 0 6.7686615877816765 14.769245320321954 10.57485470435856
61 20 1 5.231724047682229 17.556835831238665 12.114187904834587
62 20 0 5.808694753382192 17.421244628843514 12.8505582822143
63 21 0 13.80033502210347 5.893112902115071 11.31170730260352
64 21 1 13.632263390465143 7.078273500766216 11.472607699642595
65 21 0 13.256978548354514 7.351055505517673 12.4519122369387
66 22 0 13.582441083061923 1.5873991710651185 4.413285881512498
67 22 1 14.358552981159892 0.8459720717816733 4.511914633315602
68 22 0 13.519282992283417 0.6116767533161697 5.176488903540113
69 23 0 17.872746484683383 5.224036101791693 14.005150832914797
70 23 1 18.47918533845905 4.470748860060827 13.598938775280256
71 23 0 17.55113193601604 3.9437574761663408 13.623691882796564
72 24 0 1.0052357605000428 18.22975778249102 12.096004056972383
73 24 1 1.1087364887402433 18.40508920913446 10.921628247504914
74 24 0 2.2780064034396217 17.862540787218133 10.635838601292877
75 25 0 9.135882883714263 14.540860930702316 11.946966725140625
76 25 1 10.827697754018267 14.218844951928082 12.43309126234907
77 25 0 9.152999761777446 14.993720588955162 12.151760489097727
78 26 0 11.347765482945643 4.515979731149341 13.01666886705402
79 26 1 13.063870119526488 3.88695568921888 16.537520969933563
80 26 0 13.205230408202349 4.202854820872229 17.642285381487852
81 27 0 6.319481581268942 9.864745207610211 15.631529368141043
82 27 1 6.574408438377296 9.512470185103814 16.60958946524422
83 27 0 7.363639711961142 8.88080711795883 16.66629751300997
84 28 0 8.53871656958335 8.30804954321356 16.014891111061598
85 28 1 9.748986978730082 7.344486631032757 16.791264128488194
86 28 0 10.092367392274733 7.199239103833997 15.70795807159423
87 29 0 15.345819194154924 3.5299897116245544 5.532971539410655
88 29 1 16.89222339402247 1.9663662865688212 4.801666032262381
89 29 0 11.30439888631938 7.598646007150802 9.391088456276673
90 30 0 17.675488253220593 8.21147706454496 14.284892334085308
91 30 1 17.75866057621175 6.472122773277883 16.345119732812854
92 30 0 15.386955587591249 8.09481525229127 14.694713051155059
93 31 0 14.48651442697166 2.597089514054003 11.554185929648883
94 31 1 16.909806762693318 4.156382311556182 15.77963784325415
95 31 0 14.17289084942181 2.9840779353985765 11.544627724224883
96 32 0 13.305967196976319 12.007165563023712 5.459989024491786
97 32 1 15.215488504996408 10.489631499735168 5.6960986126817446
98 32 0 13.495804851716706 12.4050729846654 5.175499813090272
