ITEM: TIMESTEP
110
ITEM: NUMBER OF ATOMS
99
ITEM: BOX BOUNDS pp pp pp
0 20.0
0 20.0
0 20.0
ITEM: ATOMS id mol type x y z
0 0 0 5.603174554368132 10.010100968876694 13.847928019274347
1 0 1 4.44558493049195 9.410623940537363 13.882753466534677
2 0 0 5.4512838836612305 9.152831603100053 13.026437417768307
3 1 0 10.35446243741138 17.48029592530795 3.700431641161186
4 1 1 10.397961314804743 16.661079434559337 3.1058061918705784
5 1 0 9.004056505800138 13.764789086489799 4.81907347776848
6 2 0 6.720310444268473 3.1194544086864884 15.235214773779484
7 2 1 6.063890835472569 2.301851067889443 14.827581534991761
8 2 0 5.783240018512488 2.9086551307389183 13.957590788594594
9 3 0 3.5942400138829065 16.242622031932008 9.271374031756691
10 3 1 3.5860661434430963 16.147635178482904 8.244586559357737
11 3 0 4.685550413416355 16.080954070961354 8.612604714137417
12 4 0 9.528123478487764 6.3087431448100055 5.181460931475036
13 4 1 8.064136092328251 6.46483567256947 2.739423378684047
14 4 0 9.685662592100915 6.137879866971503 4.690370169572743
15 5 0 6.821904695706731 15.516293539982646 16.082531222675453
16 5 1 6.4888588959667715 16.727120179706393 16.91663863169626
17 5 0 6.63106518251834 16.096514794687128 15.740350325631184
18 6 0 2.347737606017753 12.433694745526216 15.107889042921064
19 6 1 1.826176952448387 12.88879026831491 15.867445936547783
20 6 0 1.6281450303841556 11.899957934247746 16.01779561168502
21 7 0 13.182089678301628 5.6371845811181425 14.22840146211344
22 7 1 12.132195687677394 4.661774385162068 14.324766727789598
23 7 0 11.300951507573357 5.014112805539505 14.16694783487325
24 8 0 2.4211974611720737 4.970243149940995 4.6034260517212635
25 8 1 2.0728434380894116 5.7521561320640755 3.420375962646987
26 8 0 2.652901978052691 5.00992566808786 3.3237156988414895
27 9 0 5.733656834377043 13.20147638388729 5.247970552571822
28 9 1 4.080100217820916 17.723078389237052 2.3742926938013387
29 9 0 5.982470155223939 13.251001329813446 5.125639398210021
30 10 0 16.899351819198383 10.233107757815361 15.194453255080488
31 10 1 17.827844417924794 12.488209609625237 15.952053240520065
32 10 0 16.071652613796182 10.188627995574674 15.855360022890583
33 11 0 6.217968238263633 13.451623916824483 18.359467947579418
34 11 1 5.090976225887537 14.619759059191457 19.001113489632345
35 11 0 6.721570208862284 13.374210673268703 18.140539873510065
36 12 0 4.688637119217761 6.079704698238405 13.274484043850327
37 12 1 2.935401002199364 3.3886954540939205 12.495279964669976
38 12 0 4.620553078205699 5.938450213125078 13.331979010548933
39 13 0 8.441219588099012 18.673223305184393 12.003840236932874
40 13 1 7.1975232461558765 19.16564046227895 13.740790065368415
41 13 0 8.0898203437981 17.646790575688048 12.65362451516793
42 14 0 17.16489709903943 16.44591460706001 12.505834082092443
43 14 1 17.871507116981952 17.154927485516296 11.970545747957441
44 14 0 16.966944964804878 16.62557286638614 11.611012715862953
45 15 0 12.932427699150793 9.44808932434723 16.800009077135098
46 15 1 12.726230871134986 8.782034909400824 17.69387894859403
47 15 0 11.739220838766268 8.690171744490243 17.84479417875109
48 16 0 15.944541424656153 13.821006085446157 18.267733965507027
49 16 1 16.98605753242049 13.48890727746845 18.347216862340318
50 16 0 16.597630596229802 12.667007080557221 17.650386569140608
51 17 0 6.292094844000256 6.183896852615785 4.7864223716585705
52 17 1 4.175709225680869 5.826799770627803 4.851316449746516
53 17 0 6.077805872489707 6.529848336879375 4.533010647371196
54 18 0 16.84276149161265 2.211537306790373 8.62074708596245
55 18 1 16.86352986334656 1.2925102357534195 7.983330172562287
56 18 0 15.91113324784026 1.2099582025982354 8.118477289673732
57 19 0 17.72081104215776 3.8403925104863257 7.952604422263977
58 19 1 18.91485797839397 3.708638204773578 8.805944798029874
59 19 0 17.592705299419222 4.872877573424751 10.007127635847242
60 20 0 6.689413595719641 14.91247439800691 10.653495494477756
61 20 1 5.2368765153655 17.547585329748546 12.109056062673783
62 20 0 5.806383852474688 17.426720735636238 12.854747563857952
63 21 0 13.797578522488363 5.91001568473337 11.315007777046496
64 21 1 13.632249977539628 7.077437476381564 11.472861210269565
65 21 0 13.259971771693403 7.347619423072209 12.444432162580808
66 22 0 13.594031482098707 1.5867031395549556 4.4070284992669695
67 22 1 14.357313526801951 0.8465030221956474 4.512489487589144
68 22 0 13.531387434556397 0.605607230691099 5.173933127492773
69 23 0 17.882441030305923 5.2243331788970915 14.00303294196283
70 23 1 18.47772572530369 4.470827162881138 13.599595688617235
71 23 0 17.561004969335354 3.9414295446113514 13.620620271746214
72 24 0 1.0054946199282766 18.232746950543167 12.079942305147727
73 24 1 1.1101228451731362 18.404239062986797 10.92235435305534
74 24 0 2.255425226801135 17.873222975408684 10.64031013292216
75 25 0 9.19057013427198 14.522217941870533 11.959071800624232
76 25 1 10.820548052887656 14.221238365929207 12.431488242817098
77 25 0 9.212730755452293 14.974061064021386 12.165289937064992
78 26 0 11.450813729080217 4.485618810555487 13.224379772473277
79 26 1 13.05826119440882 3.889224076087159 16.52599027117213
80 26 0 13.230706058261894 4.19046998811841 17.72627249799837
81 27 0 6.3226646921348895 9.861265626117877 15.637904232976783
82 27 1 6.574366571217742 9.512540857556871 16.609326898834745
83 27 0 7.361027685107873 8.883200821141136 16.66413654246396
84 28 0 8.575553815005351 8.278406924131788 16.041730538073445
85 28 1 9.74663463062292 7.346468137954741 16.78869633177469
86 28 0 10.093220803711473 7.197203535981229 15.722275408773143
87 29 0 15.407838810625014 3.4673446802589862 5.4978096983498315
88 29 1 16.86604940608053 1.9923950096833711 4.821938801100649
89 29 0 11.65721939007857 7.243000063033014 9.101680577217115
90 30 0 17.681891214773838 8.13251370281708 14.378094884964492
91 30 1 17.750613543006423 6.481333753844646 16.333863203827352
92 30 0 15.504413539653134 8.012879497805406 14.7783014984539
93 31 0 14.625815019241898 2.6853142736715374 11.795763901291524
94 31 1 16.891888182947433 4.147496568825274 15.749230037530964
95 31 0 14.329221859374307 3.0522889811278535 11.787635901891448
96 32 0 13.384846870725664 11.939068988635055 5.472777961591502
97 32 1 15.205566022950363 10.499098661717458 5.69398391156155
98 32 0 13.57568969682988 12.321701555407774 5.196536734670577
