ITEM: TIMESTEP
112
ITEM: NUMBER OF ATOMS
99
ITEM: BOX BOUNDS pp pp pp
0 20.0
0 20.0
0 20.0
ITEM: ATOMS id mol type x y z
0 0 0 5.563584037924294 10.001549986329216 13.861767076913027
1 0 1 4.45066596858066 9.41132214953182 13.880551187201633
2 0 0 5.409591829940596 9.150179124547366 13.047776662192605
3 1 0 10.35440642765824 17.474747818959468 3.6972696095094975
4 1 1 10.390589475193694 16.64609519171136 3.1150672699647575
5 1 0 9.122079320030648 14.01008892581464 4.674051694759479
6 2 0 6.710934590076591 3.101769780678148 15.233761567236417
7 2 1 6.064491467556054 2.303829559299083 14.82705315535679
8 2 0 5.783102920948275 2.8945943622814916 13.967594306685589
9 3 0 3.5764792560577785 16.24348775011498 9.26323940107064
10 3 1 3.588269578157964 16.14759333081079 8.246370651078479
11 3 0 4.668077128112182 16.080634395320153 8.591989459678382
12 4 0 9.411905878510227 6.323428238398441 4.9988222256792
13 4 1 8.078330963421646 6.462667644109104 2.7598644304810285
14 4 0 9.574920659045665 6.157903843900805 4.545846734654925
15 5 0 6.81159589699729 15.557152722760357 16.132619881753342
16 5 1 6.490178053443689 16.722051878499542 16.91183144033774
17 5 0 6.620085167532234 16.136408519753456 15.767652024733213
18 6 0 2.348588688127177 12.450652861515014 15.108747077515828
19 6 1 1.8265747491111304 12.887096134692642 15.866693433021238
20 6 0 1.6207726757813818 11.910132685415117 16.028972815271946
21 7 0 13.10842464404992 5.579469518072415 14.19988505381487
22 7 1 11.428729896357673 4.419621383874055 13.231007686820266
23 7 0 11.290429212260774 5.010151586307495 14.160600480384335
24 8 0 2.4014715128508834 5.00805693707699 4.5635083101013345
25 8 1 2.0751683691181038 5.749620119035829 3.425356290911402
26 8 0 2.6554997118707537 5.013621581157818 3.297315765148123
27 9 0 5.574946252316522 13.63090999593247 4.975611488782849
28 9 1 4.1012061296805085 17.66969165819351 2.407682145939016
29 9 0 5.8034727709929745 13.675762968630936 4.863736714555333
30 10 0 16.970864345167797 10.393775712361323 15.243954715429664
31 10 1 17.814966469677856 12.467235536112742 15.948768674342492
32 10 0 16.20325625236703 10.367048522330318 15.86675287002298
33 11 0 6.148483309244906 13.49913546484645 18.39529786208333
34 11 1 5.10160076395054 14.611186467618358 18.99542750760622
35 11 0 6.621283010152564 13.464184374922679 18.195513373671425
36 12 0 4.545766977072893 5.862437741317715 13.206143802752523
37 12 1 2.9527206981297107 3.4151215592655197 12.503387304637902
38 12 0 4.486160002846529 5.732903227184628 13.270497611414996
39 13 0 8.361602059650938 18.712779524246617 12.113949506733421
40 13 1 7.20605597364852 19.157654636346805 13.729297319049124
41 13 0 8.031633850569456 17.734037165424102 12.726163308076055
42 14 0 17.19012919471352 16.46065490946932 12.515935403240189
43 14 1 17.86887992947254 17.15286443241737 11.970955154181848
44 14 0 16.983757967051577 16.643868209703488 11.594340490656045
45 15 0 12.92838059294204 9.436483385535482 16.815605364976566
46 15 1 12.726187402743122 8.782715461629056 17.69298147225048
47 15 0 11.743879433734229 8.690968163945415 17.843639859858218
48 16 0 15.961642033492396 13.825273259356564 18.275901259162104
49 16 1 16.98411179000524 13.487752919675287 18.345402101250645
50 16 0 16.61463593716597 12.677771056397594 17.662943868325677
51 17 0 6.159576806355817 6.15240541851088 4.796700003722166
52 17 1 4.1902561270469505 5.830826049785628 4.84903630682721
53 17 0 5.957333077872224 6.495962147495198 4.545934440822537
54 18 0 16.851325244096046 2.197541978477178 8.609390424519821
55 18 1 16.862987849680408 1.2939817392045891 7.984414214694518
56 18 0 15.911563720068758 1.2008082031221343 8.112101883799998
57 19 0 17.77190226250642 3.8311153642076756 7.981365677135268
58 19 1 18.906281021245047 3.713789112919149 8.808717796569903
59 19 0 17.678678568654455 4.799479022220174 9.933868025322155
60 20 0 6.569833813127325 15.12851413032512 10.77202683480033
61 20 1 5.244678271498019 17.533619326615366 12.101329166796237
62 20 0 5.80259834820284 17.435298257957168 12.861041638890894
63 21 0 13.793353046299302 5.935529133310861 11.320176525499507
64 21 1 13.632233194825536 7.076191367993727 11.473232555832015
65 21 0 13.26451431329953 7.342203997557969 12.433136258018228
66 22 0 13.612295465232805 1.5861592230349009 4.3967629046738725
67 22 1 14.35541496164719 0.8473687235105929 4.513400491968371
68 22 0 13.550342529881561 0.5954939087215783 5.170391419185975
69 23 0 17.897735933886302 5.225267443480259 13.999866280553995
70 23 1 18.475371268256055 4.470936450147136 13.600705660887689
71 23 0 17.576275154127583 3.937260464456757 13.615688852195763
72 24 0 1.005797648335657 18.23731128509199 12.055659282842742
73 24 1 1.1122206249134965 18.402951623142695 10.923458674455278
74 24 0 2.221323146298844 17.889373344746943 10.646970441750305
75 25 0 9.272528760073026 14.492167356010775 11.976288359569276
76 25 1 10.809781175064199 14.224851333320819 12.429077832257839
77 25 0 9.30308061941828 14.946290999856876 12.18661667352529
78 26 0 3.321627003115882 8.179406987162643 11.228514223666489
79 26 1 13.025697758359454 3.9044501000009464 16.498781665276322
80 26 0 13.220300245717707 4.188796690754605 17.692553329166042
81 27 0 6.327636285050098 9.855892221582492 15.64747454495072
82 27 1 6.5742925574798665 9.512652916418942 16.608947502525552
83 27 0 7.357069971397374 8.886859364549531 16.660657302681788
84 28 0 8.630883062828017 8.233825543155067 16.0826428645699
85 28 1 9.743064060651411 7.3494782473772275 16.784777638646357
86 28 0 10.095129973455416 7.193646865830427 15.74417345260824
87 29 0 15.49761910435144 3.3766590909137633 5.445052887486084
88 29 1 16.82677055793941 2.031352525804455 4.852470345918768
89 29 0 12.188931371632636 6.706976748176376 8.665525355252413
90 30 0 17.691654528960697 8.013996850019355 14.517854459487467
91 30 1 17.73853118802458 6.495241903136992 16.316967591600974
92 30 0 15.680969950186515 7.889573739283006 14.90399237880439
93 31 0 14.834879320301853 2.817487194133921 12.157919615304438
94 31 1 16.865081273355138 4.1341186933543534 15.703527897239303
95 31 0 14.563582466293772 3.154875676852075 12.152042863112499
96 32 0 13.502245800011123 11.836104254050634 5.492718167203784
97 32 1 15.190680943064566 10.513314554072254 5.690803760501226
98 32 0 13.696460139092107 12.197223262981273 5.2274632245749
