ITEM: TIMESTEP
115
ITEM: NUMBER OF ATOMS
99
ITEM: BOX BOUNDS pp pp pp
0 20.0
0 20.0
0 20.0
ITEM: ATOMS id mol type x y z
0 0 0 5.500478495834899 9.991304368426873 13.887409484039763
1 0 1 4.4588423116262685 9.4124477535721 13.877010828790851
2 0 0 5.34190586508972 9.142376251972758 13.07871057692004
3 1 0 10.353709401639675 17.463755309162895 3.692449441612926
4 1 1 10.379171581758028 16.622942973196707 3.129445643014905
5 1 0 9.30549695574123 14.391524085727516 4.448805612620689
6 2 0 6.696703755813779 3.073404240209474 15.232664496176186
7 2 1 6.065458743610047 2.3070297428492657 14.826191164152547
8 2 0 5.78203210145237 2.8715804028294265 13.982671388762572
9 3 0 3.5452576667181495 16.245113401235805 9.25006235373739
10 3 1 3.5918654501095846 16.147532319519946 8.249374992098753
11 3 0 4.641800635498511 16.079754589277382 8.55671725546717
12 4 0 9.22994678737843 6.3477319816379705 4.719279411311443
13 4 1 8.100155436711306 6.459353200397573 2.7913756453244982
14 4 0 9.407978515015238 6.186670505000432 4.321027920296392
15 5 0 6.796967356644498 15.616902354460475 16.216435203573766
16 5 1 6.49228202284127 16.713958823728188 16.904226914978896
17 5 0 6.600706072814038 16.205505346981653 15.806405393559366
18 6 0 2.3506228748585287 12.47963292252691 15.109427992752824
19 6 1 1.8272396916528326 12.884238381160113 15.865429953331532
20 6 0 1.6078069256523246 11.926926351114757 16.048498692225312
21 7 0 12.918268951879513 5.440830907407905 14.079361324690845
22 7 1 11.442688981883313 4.429924063383469 13.239974029731181
23 7 0 11.256150675986122 4.9833894395411305 14.136232651334987
24 8 0 2.368924961912501 5.068778447808318 4.503800993664979
25 8 1 2.079234408766959 5.74544798457153 3.433433190472102
26 8 0 2.6589732717523376 5.0213685958425 3.2515122761847977
27 9 0 5.329926245863038 14.291158355071733 4.55720358368913
28 9 1 4.133659370161224 17.587599856677368 2.459024111364654
29 9 0 5.529214859543822 14.328997600655335 4.460612116306614
30 10 0 17.083369684032064 10.640341934010484 15.3176536717625
31 10 1 17.795030745631415 12.434965459247891 15.943868459360806
32 10 0 16.404533932124632 10.643266877130989 15.886486703336345
33 11 0 6.035990971222812 13.565714438614638 18.451728672718342
34 11 1 5.118135809083425 14.598074987003544 18.98661027318643
35 11 0 6.469628953404498 13.608001536978815 18.27982843795799
36 12 0 4.325742507356505 5.529204626276259 13.09766771218868
37 12 1 2.9793545419382577 3.455770665445145 12.515837763427802
38 12 0 4.279759444122847 5.4157711400744395 13.179572461445442
39 13 0 8.239037060826137 18.777565858064957 12.282898610616515
40 13 1 7.219271418034905 19.14527667248103 13.71144257339532
41 13 0 7.940396671434413 17.865503948408186 12.840617835266698
42 14 0 17.233068818051592 16.484665300403126 12.536093515277656
43 14 1 17.864466759666733 17.149404751432275 11.971627034978797
44 14 0 17.011447971745604 16.675262344657188 11.563394697660929
45 15 0 12.921900062008644 9.418445412431208 16.83985251448907
46 15 1 12.726125552621248 8.783764771268656 17.69159807937094
47 15 0 11.751203922792598 8.69234777326765 17.84166577643886
48 16 0 15.988940809630067 13.833811243286105 18.290140745752364
49 16 1 16.980938508090592 13.485843887541433 18.342364465084877
50 16 0 16.643377950727558 12.69343319652818 17.682333192811264
51 17 0 5.955918153875151 6.099085348604041 4.815725746943211
52 17 1 4.21246838358408 5.837012782151364 4.845352228546821
53 17 0 5.769299953974838 6.448535463043565 4.562281112226728
54 18 0 16.86631486734763 2.175991084138377 8.591541637538317
55 18 1 16.86203345587328 1.2963605882133775 7.98615716744216
56 18 0 15.912429256184314 1.185121912830269 8.101149330682809
57 19 0 17.852054384649588 3.8155570709327304 8.024358689588066
58 19 1 18.892859866007164 3.721847373738499 8.813066145028056
59 19 0 17.812952418319874 4.685605587091396 9.821058818276825
60 20 0 6.383871413172769 15.46420092791077 10.955913201787782
61 20 1 5.256893287213007 17.51188345318697 12.08937103722063
62 20 0 5.795817399431929 17.449534165481946 12.870681952843105
63 21 0 13.786585245442621 5.975219245615179 11.328777437272553
64 21 1 13.632217418472068 7.074299157313045 11.473774529765667
65 21 0 13.271650054400743 7.333109100802138 12.415555413415372
66 22 0 13.64301393739342 1.5867268480689811 4.3784146218217055
67 22 1 14.352381769664309 0.8489152008888375 4.514951223308428
68 22 0 13.58190509473689 0.5770085699180088 5.16574391165257
69 23 0 17.92344478827356 5.228104204752999 13.995020441541847
70 23 1 18.471234057226738 4.471072120120973 13.602806864434102
71 23 0 17.601099975153257 3.9288911225189356 13.60717711251642
72 24 0 1.0059964057391864 18.24457271992121 12.017772396892433
73 24 1 1.1155002434840071 18.400935753313398 10.925202107263381
74 24 0 2.1682153422577 17.91458187569501 10.657050240420654
75 25 0 9.398646987273938 14.43880597331063 11.999661110760112
76 25 1 10.793044107569814 14.230493149964026 12.42534142223481
77 25 0 9.444827042078014 14.9093588431854 12.222982626001304
78 26 0 5.138479785025539 7.3796555222391 12.216272555685851
79 26 1 12.913315988403998 3.9550180570033784 16.44096588100876
80 26 0 13.20217225767701 4.179303972071811 17.631356022555615
81 27 0 6.335858016913158 9.847179023473055 15.662213768713068
82 27 1 6.5741459429772915 9.512842939901649 16.608406068554046
83 27 0 7.3508698307520115 8.892681975346967 16.654615962669727
84 28 0 8.716095407511707 8.164971025564938 16.14764461999234
85 28 1 9.73745113433753 7.354219338743761 16.778537554859856
86 28 0 10.099966362130482 7.186649296637585 15.779199628582681
87 29 0 15.626658472344303 3.2463588673193255 5.361590758021531
88 29 1 16.766267759137158 2.0910369378388407 4.899911003547124
89 29 0 13.013980387471008 5.875063931325103 7.988993786228481
90 30 0 17.708016863578614 7.831371738893585 14.73279150123446
91 30 1 17.71984962196696 6.516833077299919 16.290900538695865
92 30 0 15.953223298465508 7.6984697271758895 15.098649804818585
93 31 0 15.157274765443683 3.019949356226148 12.714606242856874
94 31 1 16.824098754774766 4.1134926275143755 15.632915140583664
95 31 0 14.923563916507717 3.313937091237999 12.71257952578902
96 32 0 13.679696749986029 11.674482973240611 5.526218422470763
97 32 1 15.167755988585968 10.535254935455447 5.685879957242584
98 32 0 13.885823622657787 12.007819932499013 5.272714478134868
