ITEM: TIMESTEP
118
ITEM: NUMBER OF ATOMS
99
ITEM: BOX BOUNDS pp pp pp
0 20.0
0 20.0
0 20.0
ITEM: ATOMS id mol type x y z
0 0 0 5.439969993919691 9.986518491104112 13.917330001695383
1 0 1 4.46679371006736 9.413548172722953 13.873573072401175
2 0 0 5.275207513375698 9.129498446537596 13.103687625463577
3 1 0 10.352124895252839 17.450367134450147 3.6883922489509025
4 1 1 10.36881517387839 16.6020043605028 3.142525218708102
5 1 0 9.47282724310607 14.739938414612897 4.243575062937573
6 2 0 6.684205533610185 3.0462042009693255 15.233365202008695
7 2 1 6.066392193940861 2.310135912723491 14.825343477312899
8 2 0 5.7798050194284105 2.848863713300726 13.995760441720124
9 3 0 3.511556329135405 16.24698459322587 9.237104816606177
10 3 1 3.595400618852849 16.1474832693862 8.25247037205845
11 3 0 4.618978716060597 16.078394017478484 8.519700114219493
12 4 0 9.059810137056244 6.373158504628756 4.471108284466345
13 4 1 8.119779139642116 6.4564064480252386 2.8198587900168848
14 4 0 9.264470175187379 6.208438851076265 4.11327171895854
15 5 0 6.785740697959191 15.66587952377484 16.3032233086895
16 5 1 6.494301872922608 16.706166356335363 16.89696471447772
17 5 0 6.579201889947552 16.28043409550749 15.83688835388206
18 6 0 2.353461413692153 12.509876793475536 15.109168621927417
19 6 1 1.8279142386348552 12.88130176716951 15.864139584784347
20 6 0 1.5938285851381062 11.94372654359639 16.069393276221703
21 7 0 12.747739888974538 5.313425970963386 13.966741237216471
22 7 1 11.455839455463845 4.439574184112232 13.248424797008546
23 7 0 11.215995206741933 4.956025416176936 14.113543613334695
24 8 0 2.3362356540408635 5.12739155458517 4.452832906430313
25 8 1 2.0836992154644007 5.741276317889911 3.441316291978808
26 8 0 2.661169698200902 5.031526909043811 3.2030090813446694
27 9 0 5.1071988442388685 14.884160696978565 4.182315154408681
28 9 1 4.162818542725182 17.51383571601008 2.5051572596709084
29 9 0 5.285362352753487 14.916239552831945 4.097293027930341
30 10 0 17.190146449686985 10.861246722890781 15.378739695429001
31 10 1 17.776866975926353 12.405895671204792 15.939710585182254
32 10 0 16.582584679297547 10.895040606165429 15.909052632067853
33 11 0 5.9240152070121965 13.61472379444028 18.5052689583895
34 11 1 5.133369131136742 14.586344630971146 18.97853521502565
35 11 0 6.338366514897019 13.74741632374479 18.35508622648599
36 12 0 4.127399272810098 5.231692194595472 12.993025510830972
37 12 1 3.00329727653364 3.4923338594063176 12.526997744058736
38 12 0 4.094675722697133 5.12831331855485 13.105422499191386
39 13 0 8.128755314158584 18.8436394937037 12.433818147551474
40 13 1 7.2313361630898125 19.133957267240906 13.695054468956284
41 13 0 7.854893471290885 17.978436005153757 12.94925978755555
42 14 0 17.278017619047606 16.50848697683602 12.560819458248975
43 14 1 17.85991239456215 17.145844425143608 11.972293167216838
44 14 0 17.039391527447076 16.708464274376233 11.527966688952043
45 15 0 12.915699259332373 9.401989033042181 16.861986219342878
46 15 1 12.726078932782979 8.784712041662535 17.69035423544725
47 15 0 11.757995832799182 8.693814624110107 17.839604163309037
48 16 0 16.015002841496244 13.844356779006764 18.305402279058644
49 16 1 16.977822788948384 13.483922819623334 18.33924781105254
50 16 0 16.673054803899706 12.706203322243422 17.699879095779572
51 17 0 5.773060399637304 6.041828970249653 4.839024192160282
52 17 1 4.232222356437424 5.842581812797294 4.841729499559064
53 17 0 5.5947898830854825 6.4146096731943 4.570443183553327
54 18 0 16.882451700173196 2.156589509601635 8.574943805360276
55 18 1 16.8609983375902 1.2986677507403073 7.987827941371142
56 18 0 15.913515277379565 1.1687096594682505 8.089657922807568
57 19 0 17.926855024520428 3.799250112299854 8.0606946335668
58 19 1 18.88041026596214 3.7293047859713644 8.817083922407265
59 19 0 17.93697319745577 4.5819846622678435 9.720151473284238
60 20 0 6.2139523501015415 15.770405473507468 11.123128388406862
61 20 1 5.268181390573937 17.4920098579453 12.078548376902367
62 20 0 5.7882822484919165 17.463830434181016 12.879187828269947
63 21 0 13.780102198859367 6.011478724911912 11.337480758798677
64 21 1 13.632217314188848 7.072637443697653 11.474210722190145
65 21 0 13.278264685962872 7.323816544802598 12.399488827680479
66 22 0 13.674551569915545 1.5891868711311137 4.358215618055947
67 22 1 14.349503286513475 0.8506448786430413 4.516577211861663
68 22 0 13.61391177095859 0.5561600537718616 5.162639212768184
69 23 0 17.949683083696055 5.232655513174625 13.990701800026022
70 23 1 18.466688541841375 4.471126593105824 13.605340999540182
71 23 0 17.625316196593417 3.9185482940743817 13.598217829823152
72 24 0 1.0057551804687024 18.251453010372686 11.983003733241967
73 24 1 1.1185215174391039 18.399073966959783 10.926833947847204
74 24 0 2.119603785688037 17.93774655927856 10.665815213105416
75 25 0 9.512751214424897 14.37810187025087 12.01536170102588
76 25 1 10.77761868597444 14.235727490685559 12.421912060590008
77 25 0 9.577614316387907 14.88628449987842 12.26209918781032
78 26 0 6.795965174421011 6.6497419690658015 13.117459294319652
79 26 1 12.811533465219926 4.000967113673863 16.38906621602894
80 26 0 13.172968278760445 4.173538957523794 17.560767700651226
81 27 0 6.344083645268032 9.83870060724035 15.675467863857058
82 27 1 6.5739655831833765 9.51303973645838 16.607981680471735
83 27 0 7.345142896822709 8.898191112986297 16.648186606770167
84 28 0 8.792573251495853 8.102839649158385 16.209396279887716
85 28 1 9.732235870113586 7.358641981223195 16.772590194885723
86 28 0 10.107192093781702 7.178035708107103 15.812830669126052
87 29 0 15.730194328035802 3.1419988242732515 5.277828168781213
88 29 1 16.711731108331737 2.144310558506313 4.943500682693716
89 29 0 13.765339895329989 5.1171367055314825 7.373933477898365
90 30 0 17.726766643806 7.666589655677426 14.92595331770352
91 30 1 17.702820165015954 6.536445914792533 16.267276305411354
92 30 0 16.197695405630864 7.524053863010324 15.276427590122326
93 31 0 15.449239492354728 3.199431905895655 13.2144123602539
94 31 1 16.787744988875513 4.095031811630444 15.568925076440086
95 31 0 15.245610815821518 3.459983722243237 13.216641264446523
96 32 0 13.83339260281973 11.522457959858246 5.5619903800267725
97 32 1 15.147059392084335 10.555140679614563 5.68139079653829
98 32 0 14.063290993659525 11.841698646697884 5.308734679663465
