ITEM: TIMESTEP
12
ITEM: NUMBER OF ATOMS
333
ITEM: BOX BOUNDS pp pp pp
0 50.0
0 50.0
0 50.0
ITEM: ATOMS id mol type x y z
0 0 0 27.36813036843427 31.647757738371737 30.80354238038597
1 0 1 27.1458158730137 21.87055340325901 32.552250422613824
2 0 0 23.471901124874794 37.68341023835328 43.46101978584536
3 1 0 21.82466942194629 41.42489548863989 19.802339789498713
4 1 1 27.783639178908892 45.31044217541135 4.682437468307593
5 1 0 11.601742221845013 14.684328080239041 30.182947744694648
6 2 0 39.11209239761012 37.51859594893341 45.91912836649015
7 2 1 39.305157664643055 23.611646564555084 38.613575126187776
8 2 0 16.155681159819522 29.374084002411415 16.78572056654777
9 3 0 19.258468689103218 9.82351956411093 16.48151017985345
10 3 1 13.447045222825713 37.24965231224962 22.52783885205934
11 3 0 23.918436671001487 12.193826777120853 28.424406999792
12 4 0 31.641943312858913 26.98118453011468 39.701534343378526
13 4 1 34.04119642838756 17.94200270283329 22.523941379324555
14 4 0 34.640667273993955 7.411432727827625 30.066210386425396
15 5 0 28.27490581738334 12.893055043685855 12.927268877060088
16 5 1 16.211695246381296 18.623841231672035 27.670951081894685
17 5 0 20.139558280314827 40.03567680086599 12.048290495424414
18 6 0 14.015958926867244 14.078789886021015 26.658375379303617
19 6 1 49.28165439110653 42.098457270047334 7.561280763868655
20 6 0 12.277090094143636 12.310795374012816 26.758397036259208
21 7 0 17.03767991138882 8.47625618904313 25.41448523946409
22 7 1 39.73885765653311 5.769043094389614 41.116955020914524
23 7 0 15.649945227620359 35.55189316590765 28.93830244310483
24 8 0 34.717364302786486 25.353377737734455 27.644198621495644
25 8 1 3.0752081480592173 14.297652048010391 6.774684191892245
26 8 0 11.219465273113675 8.368261857649815 13.122415784176976
27 9 0 22.833204628425985 6.146529256090913 32.25091117695328
28 9 1 27.757916358564557 13.377525105892156 26.6880852926755
29 9 0 11.732404359193682 24.129851340019002 40.426694034674014
30 10 0 21.804749539104556 27.72557733102347 7.451163554255704
31 10 1 35.331718484127386 14.56797429046262 9.70930101499807
32 10 0 31.20423270033281 5.087921627833418 31.789302246536028
33 11 0 11.152765344344443 38.09354047639969 13.231841722906818
34 11 1 35.93747834613156 47.507536415573504 12.753110472933999
35 11 0 31.046281589031892 35.02927891054772 23.83447948572498
36 12 0 20.675624661104983 44.36449543102025 19.193362886039328
37 12 1 43.01420512830002 38.37373386432919 9.271786981701014
38 12 0 41.29059713375151 24.959654474977622 34.32643356815638
39 13 0 31.174759377142582 38.46563884756605 38.461009212053526
40 13 1 36.058252681398784 25.3435802384374 47.249053441756296
41 13 0 33.36047757360865 22.37616997541302 35.3680505995921
42 14 0 4.927220939261358 19.693273073431744 29.620704226980713
43 14 1 14.117456577134318 30.32410271510392 21.776636736886694
44 14 0 8.986877433327882 19.526576062256186 26.47461691685351
45 15 0 30.381122649262426 26.668654176690808 36.147175668487414
46 15 1 32.29877442599204 21.701569135250818 44.60743710288669
47 15 0 22.44332830847881 21.749722460883405 44.62804223521237
48 16 0 41.890533162578215 35.37428953548049 18.383307958905306
49 16 1 45.149795413683506 35.84613713073751 48.32625119124035
50 16 0 19.080698770694138 41.08125218670014 20.610061258021233
51 17 0 33.89110104825166 12.242225447499635 36.26661722937851
52 17 1 46.97090860522916 23.376647569980467 24.205173184719808
53 17 0 14.883609424646465 32.264613815928726 22.484355288198948
54 18 0 38.10088054091678 30.455680344690617 39.51836823292493
55 18 1 42.5558593520004 1.5242181306621132 18.71363593471373
56 18 0 38.26134197650573 6.441505266737155 23.860889098554093
57 19 0 13.82269892269643 10.433100451732976 5.777513717690368
58 19 1 39.12272373534394 11.615598006416716 16.676443955446867
59 19 0 44.29301238517709 28.078437952249683 6.199179451615311
60 20 0 9.334909141517171 35.53802175115259 29.408761220403548
61 20 1 12.100605234104982 46.11766802165713 30.77130466239746
62 20 0 22.386274037133322 34.51983433218541 34.790156354869104
63 21 0 13.30136009355528 28.274250575344436 17.876142935835126
64 21 1 9.70810844757341 46.04696434429519 36.035104645174656
65 21 0 19.968762417680622 22.06292220677447 19.928630628086662
66 22 0 12.308967616516407 20.827688430505752 13.697842465403248
67 22 1 33.60862439657966 18.649344163304114 9.566461425065352
68 22 0 11.227128765867045 8.035887042535009 26.481254749903684
69 23 0 30.574023327924998 22.030677057542853 41.36794233533496
70 23 1 48.349122945502764 10.957945136147359 33.45762534624157
71 23 0 23.96322779575187 4.0190903575264905 36.528969308120004
72 24 0 23.520719761596617 22.852036989864647 33.53960919783862
73 24 1 40.56375134336982 31.380151898574695 42.732172308116205
74 24 0 21.975594534088966 37.323498894443304 19.56175105708725
75 25 0 47.51686691897807 34.79268706783354 11.142407861614922
76 25 1 46.68863120175087 36.31770403392794 12.460568897804777
77 25 0 21.667451702729405 29.092480463882328 4.700265116240645
78 26 0 14.16035804325454 19.070173134815867 21.792509071069716
79 26 1 23.311871293366515 13.868360472360735 29.0846958437411
80 26 0 37.27617941171228 8.249616585755659 26.856544000125602
81 27 0 13.070607868838545 27.89224011815096 16.171189795785207
82 27 1 27.798992526253386 9.81781584940277 8.212751036601983
83 27 0 25.49532560550841 15.279916837956591 35.13148630117321
84 28 0 28.192676853987788 34.4502237100869 40.35145906662206
85 28 1 5.620624862653226 27.54941359305489 29.1994885269561
86 28 0 34.97854480749727 18.553008034040534 17.264945752926618
87 29 0 13.603050092162466 12.316010448114056 36.72654471849962
88 29 1 32.8849512284747 37.87134029535448 14.872000336719937
89 29 0 30.480283570237034 13.865949862229824 21.332920812003962
90 30 0 48.63241471973344 34.22708149429472 26.039316027455616
91 30 1 48.07473734065092 12.707059535378297 46.604324065931735
92 30 0 47.37222427572042 31.606607401477117 36.17768850473946
93 31 0 16.984514271166113 7.067943941992741 8.492696713990838
94 31 1 30.418409377655784 1.8205098551995558 17.622354939840683
95 31 0 23.52231211086072 39.105993044075 26.52261667828959
96 32 0 19.63450142453257 34.56404455804565 15.791485843910687
97 32 1 7.518371240730411 40.38756225379142 9.569680176075126
98 32 0 20.026950891292987 20.119295708442483 6.294050564429203
99 33 0 43.647350222791744 45.62144659638909 38.67678283683631
100 33 1 44.59132187848083 38.48567744296013 17.349899246759772
101 33 0 21.902141831249295 12.68644700414117 46.43609100726547
102 34 0 4.814917499201 13.34773781980851 27.661509306051162
103 34 1 0.7472077486926495 37.229962340614414 8.372946935153827
104 34 0 2.9728449170686764 14.589594532104636 25.811148726635494
105 35 0 21.121865873307257 24.938965176323386 24.601781674446315
106 35 1 40.48140919821326 31.99829386924961 20.08906768485563
107 35 0 17.23396319209374 12.263225071494722 15.677140273529183
108 36 0 19.401046176329462 20.47901911127115 29.576189197210127
109 36 1 41.4458908056353 48.300357932250336 2.5798124069545794
110 36 0 16.68982900881453 32.04354976923522 7.74964092810992
111 37 0 28.337917379985694 32.906943030525625 35.98567157529123
112 37 1 13.386471440278587 19.060864626987247 29.20185483187315
113 37 0 13.511438870527295 18.646960889360027 15.585776742006038
114 38 0 17.335027590836184 9.403306042567145 32.65783586488658
115 38 1 4.6630058436744815 25.91375110879081 16.113920335593345
116 38 0 20.517493722864405 42.46823628505028 28.32703133115499
117 39 0 9.149547714590227 25.206324131320716 22.151288456221288
118 39 1 25.970511179438958 33.57094174920986 14.72343269877731
119 39 0 12.477737505186743 23.926633437706766 37.67148075061591
120 40 0 13.260631052752133 44.81337385277834 26.035842425873152
121 40 1 22.853635527823894 43.67491443707558 23.417541570631897
122 40 0 32.17494436072599 27.171709616691146 38.559183953239575
123 41 0 35.28141134867352 34.19099544577875 15.353638822747268
124 41 1 37.23009458081939 32.00271882121907 12.74098982566613
125 41 0 16.989770139337644 37.41892837415123 37.14815448292677
126 42 0 22.926708506420013 34.97430972147508 38.786161328923654
127 42 1 23.090926609409088 47.79671787913216 29.331545240106816
128 42 0 35.679769727887184 46.13912397181183 37.31252883667678
129 43 0 6.710982741382381 28.47133875348647 18.0365184706682
130 43 1 3.95528069144251 21.016883534692802 13.711377883012096
131 43 0 30.59720057645929 7.5937582653492575 37.39945600767402
132 44 0 15.19625360959472 18.589894678448996 14.538160500598218
133 44 1 9.341156225117032 20.520016871347305 45.56039759308399
134 44 0 6.276335857266146 39.19291917689482 44.219442621528856
135 45 0 25.026067210643724 12.083155801471959 8.492704273157228
136 45 1 30.445877692195484 2.2849875757488314 1.1086274072217683
137 45 0 26.745636074080263 25.84726651986837 2.7525165180922277
138 46 0 8.110740061192134 10.756331568771325 13.738681974414591
139 46 1 1.6940089173280044 6.719224262064729 30.281540396021466
140 46 0 34.18437795044678 36.29964045496316 23.545717581992584
141 47 0 20.495309903120553 23.321696582858216 28.91179385979581
142 47 1 48.05191204468405 3.9626790493555863 38.77705625748071
143 47 0 24.769119685154212 9.528206348601362 34.884030191084804
144 48 0 11.845906362037281 29.193843160774865 20.673903561576203
145 48 1 3.8856475256960783 14.91130982403115 3.0863479228760093
146 48 0 27.963689846030714 20.3886054682306 15.165043771293215
147 49 0 32.626754469329526 37.67117531656598 14.0736406694708
148 49 1 12.889038963055892 18.54179860935722 40.114314201445836
149 49 0 38.03575308460424 39.199890797694685 43.77115163664799
150 50 0 12.280183701044592 48.90822556920161 12.321540875464441
151 50 1 6.065451489591843 46.81287259600948 12.167120325345358
152 50 0 38.33810736733973 28.942836472759502 32.36793836265592
153 51 0 36.46007010839376 20.68466975294222 16.85397485433792
154 51 1 18.811751946796267 36.59933583250688 12.102717281182402
155 51 0 11.592067953588735 26.754344460907618 14.294557696855922
156 52 0 43.49128270365769 17.775931705848272 30.502970515564044
157 52 1 47.032241177492175 31.436845672889294 42.88543653058835
158 52 0 47.028904844817255 35.85827966619826 37.25973067777706
159 53 0 34.89926248945988 39.095479347225925 18.136430073388034
160 53 1 4.691276953896775 15.143155738747808 8.303830784767028
161 53 0 15.862933764730972 9.071593200246156 23.542362725483812
162 54 0 20.650993265734634 36.86655122591941 42.70627541756435
163 54 1 14.283160195414077 32.167010979086506 29.70460833556055
164 54 0 38.66468482633503 19.852090772441816 28.167601976532314
165 55 0 13.307182059344646 23.398798679073835 18.998519080829713
166 55 1 12.550104621885465 25.273645814238545 15.99056281764476
167 55 0 16.821163251349798 25.96148368141834 31.06517636885884
168 56 0 13.210845895090815 35.995079746442926 36.64634655689398
169 56 1 5.464913637734807 12.818237674862457 22.031310322259667
170 56 0 5.236063746823031 15.994766216470094 32.56311323543849
171 57 0 27.083103564928397 26.99163809762172 34.95796194735784
172 57 1 11.306750774698232 17.529141904921342 33.47904106608467
173 57 0 33.927810371009116 24.199744058037606 20.039190044696934
174 58 0 6.623252550579163 32.790029548846505 14.017995581126046
175 58 1 18.051591397928746 26.578442576007042 44.419001205711766
176 58 0 8.680652945083278 22.199704406775613 14.576973408778606
177 59 0 15.230047314899688 23.668480422781666 18.44053077980189
178 59 1 11.06002003819772 6.766878903390422 28.927874719434918
179 59 0 27.501793723959526 25.33326219169163 41.821380390483746
180 60 0 8.955643418601483 37.07752828305811 21.329822396237347
181 60 1 28.990900845601196 47.708867381310554 1.836695405941256
182 60 0 33.14021858242973 42.84031414572815 18.289955034871866
183 61 0 21.10932224108297 37.41818191388366 13.404351595838898
184 61 1 21.725485555172206 26.040983426504102 33.9592437707111
185 61 0 10.949255169406221 17.89523614586327 27.71983131719524
186 62 0 23.962356841859428 45.71372837964316 34.63920691752625
187 62 1 7.4824914317259905 48.76891402149872 43.03943423162706
188 62 0 21.05109728327346 39.54284909806385 31.028496840835967
189 63 0 46.02796000905847 29.658727171951835 36.45804794552464
190 63 1 45.49772558821456 3.396813976139663 9.596062713935497
191 63 0 27.45849348053498 33.91961332519131 13.238662436886537
192 64 0 19.21357177700948 33.33392924930303 25.507058464095905
193 64 1 44.270559830278884 8.61230817497729 32.887087295933675
194 64 0 28.785280607225 5.1696350032913605 34.26946898751299
195 65 0 9.690226415875548 15.04558100037582 13.225767998668461
196 65 1 4.005505043164202 44.35789834084726 36.16349083650787
197 65 0 32.356752109462015 37.02522168368951 29.50905015460131
198 66 0 17.67415765229101 40.579144360571526 27.339140260279837
199 66 1 23.109871054588183 19.442865281780882 48.13139681362936
200 66 0 13.049515425026316 17.233501498751693 38.30236727062648
201 67 0 6.411602024996885 24.983302551751517 24.397469997959508
202 67 1 14.07395767562142 12.449037877434025 25.535068451660806
203 67 0 17.160948739284443 19.75152803882853 19.407301917271386
204 68 0 39.0954143911002 13.621755560952256 13.256037781643707
205 68 1 17.802630432842353 29.498639855203848 32.154407006386705
206 68 0 19.163477034413297 43.8580807834208 22.05018654838553
207 69 0 39.730175616961915 35.459639143058055 39.85518602313762
208 69 1 48.32301158312997 43.748540254531505 37.698487380555115
209 69 0 39.00101596131387 25.085841764865645 16.657047385302363
210 70 0 12.180920110202706 24.54493348134136 37.29469410576314
211 70 1 25.36123487027076 37.66072497325789 47.30390141506136
212 70 0 11.879851697126815 15.285051096943228 34.9741159929058
213 71 0 40.75432810461512 35.75270171504443 38.45784792126529
214 71 1 48.436654678602665 20.716617380996887 19.46960809532783
215 71 0 19.97302497986926 30.038661564800435 28.70308954084707
216 72 0 39.0136849464358 6.957309695412582 20.1007248474027
217 72 1 29.56240646296807 11.77962136083656 9.024166417456511
218 72 0 38.929190065651085 5.593815787168425 19.148796960027443
219 73 0 10.40477543149765 28.807697586963446 36.050128918718805
220 73 1 20.758856105415955 42.068175329560255 6.928272810195395
221 73 0 15.774607810342854 26.84449254376845 15.939748745787119
222 74 0 30.203456793597535 22.38122217676546 26.43416911668494
223 74 1 22.433930954627677 34.10608314240581 5.17537774543625
224 74 0 28.204661895581843 12.857640208234997 30.154748826459624
225 75 0 24.614041384820013 31.472380472535026 24.937138383498354
226 75 1 6.21713853366589 20.204179342176392 20.69399659671116
227 75 0 13.016210625889624 7.103128710475018 31.966604543209833
228 76 0 13.409505665154096 35.46712611793069 26.220229847555633
229 76 1 31.4684191084602 46.7624385090067 6.1245056677732785
230 76 0 39.77236059047933 15.423230453628825 20.33361016513612
231 77 0 17.1435635034454 18.77285366290155 20.47945606379016
232 77 1 10.328940790738868 1.7476278403474075 25.49338553845005
233 77 0 32.39826908500649 13.43264798465452 15.544534953004174
234 78 0 4.271280843979577 6.909094502119624 8.895868284887582
235 78 1 4.700755066589083 13.849298275842449 3.522979684823446
236 78 0 3.761475728077105 34.01459183461489 6.710313162159803
237 79 0 21.973243035796507 30.124952231643576 22.524101915683907
238 79 1 8.386956541470742 10.647107820815146 21.98978810798694
239 79 0 20.926701886722135 15.342622288350448 33.92046912800272
240 80 0 39.69746076490917 38.39225607319375 14.234373833446279
241 80 1 44.46100422287986 20.67417759833099 43.01763905578868
242 80 0 37.56776105675072 40.594308717842196 39.60497331333526
243 81 0 18.277371307583557 21.631447772886165 20.528323615547226
244 81 1 18.52821648202795 13.271763929856103 24.718331790238942
245 81 0 29.514846879344155 13.663907371043669 25.792028364535366
246 82 0 18.630267569156562 5.661575458298881 4.429751481197889
247 82 1 47.41211742563887 0.4098782172987987 9.458306985030648
248 82 0 35.87178321333593 2.931604141076364 33.535879637699416
249 83 0 29.746364485852705 42.04358784098042 31.700924962212973
250 83 1 15.606213453699343 27.606754863594457 46.10137481986177
251 83 0 22.885484931104674 17.535721398483634 44.58495674894285
252 84 0 17.809150443530264 12.867385848953342 15.61708243971328
253 84 1 16.07800793724353 41.66000095302329 23.118929537191715
254 84 0 20.352329123228056 24.470651546260772 37.701507350172974
255 85 0 47.448785068217155 46.60003852745735 23.10487759588654
256 85 1 47.6155978806803 39.23698946743462 33.04030893279939
257 85 0 23.1159362721572 19.529262319098333 15.940778668346944
258 86 0 39.665479468058884 21.895149212061547 28.508608636309777
259 86 1 24.77077280946609 38.13954971770556 41.84829634315002
260 86 0 12.2597166231994 26.457732306798846 42.103057060306426
261 87 0 33.24133922425448 4.794341863213925 11.775733474802504
262 87 1 15.501734159600979 4.244486679063423 20.823036840131664
263 87 0 8.375097962871465 21.105358465085576 14.928253145378411
264 88 0 34.760695431932916 10.00765467012327 37.748997501898955
265 88 1 45.68545565837226 19.419914920693355 12.60326010349764
266 88 0 22.662785572607323 22.7579210124645 5.135990400421339
267 89 0 34.4460342769711 24.93032083271643 27.44825571902886
268 89 1 39.893057828185285 35.34673175848607 47.015604989201314
269 89 0 24.338651931904582 42.04194914876201 41.13771486875153
270 90 0 12.908136816993611 28.109469031912564 7.760475103696241
271 90 1 42.43253390205322 6.417410538466695 11.138067850018391
272 90 0 19.449935840446894 15.86613509202243 29.261630758303532
273 91 0 23.73849690533495 18.405351576275926 2.705114255435919
274 91 1 15.509402428329132 5.082717940068631 8.248868691615758
275 91 0 37.79478435623418 8.8117001751343 32.611963328958254
276 92 0 29.92894627390557 16.462969562166386 30.806035612479988
277 92 1 7.0666847293516515 35.63571956455622 32.10057629602879
278 92 0 30.274905897722135 27.602633795175908 41.582940636976474
279 93 0 8.040880824357172 12.898929407443797 26.789811674052554
280 93 1 20.935865885245004 9.037612965075299 6.643186485761391
281 93 0 34.80653991259183 19.162371373313615 32.555399163406236
282 94 0 33.34347329110199 27.59714995945189 24.122787962766054
283 94 1 25.51366766567176 43.83232318954721 36.69602511354409
284 94 0 7.870128910898997 37.527793456698475 43.21389925806402
285 95 0 27.11728289256892 11.560491708662479 30.867269992394522
286 95 1 8.272585954524985 17.71089455439357 45.87976692391871
287 95 0 34.466093292818044 15.260038356644625 25.906138347414235
288 96 0 25.04386006245684 46.73104664561601 12.473829391562738
289 96 1 13.756729322105667 43.11934163434192 24.318521953923238
290 96 0 35.34249364646027 19.64037105709813 25.966819002939374
291 97 0 17.933211383546727 16.48504927713048 29.146404432732012
292 97 1 21.83398124725525 18.1726933111722 44.74247787005562
293 97 0 32.09681748667906 30.825474131026546 23.787112113311252
294 98 0 25.557791638764034 38.855101174171566 38.892632995405286
295 98 1 17.24758383996319 38.63635438807643 36.58154163692158
296 98 0 10.065701908832672 41.91381231651346 26.364761599570123
297 99 0 26.29241401672428 23.14772786423159 32.59903473415278
298 99 1 31.08957950168577 24.944497022372012 42.35331294615933
299 99 0 37.229928733949095 27.91670883175823 15.21499994538041
300 100 0 29.203900722457405 25.294730487541877 21.13291191244644
301 100 1 3.7274295288815575 42.804901592341025 44.57603626645927
302 100 0 5.21175012220866 24.781587343360027 19.829196150545265
303 101 0 17.650723084791128 33.38748078388625 8.011728920199955
304 101 1 41.32409666834279 8.609554255682646 1.97993854064021
305 101 0 12.789980512460446 28.62335874666304 30.314428622985076
306 102 0 34.37256615748327 18.264396612028737 36.39660827054436
307 102 1 26.116531865327143 24.403307785119093 44.679278398405124
308 102 0 27.22301717652329 36.32811474074606 38.803830857338795
309 103 0 14.852068655563714 27.70130119347085 12.674964113092818
310 103 1 43.600875182243584 3.2302094268809656 16.999687408679808
311 103 0 16.95627035738138 17.375248525587278 33.64487138884393
312 104 0 22.419413701873573 7.477868382644841 15.017732311209373
313 104 1 39.53006211135547 7.554303230528072 11.619372463245925
314 104 0 15.032026171053253 26.482066770908368 17.721347311068993
315 105 0 21.70558554121246 37.25086893638772 15.071242340167364
316 105 1 36.233844222838336 40.068952554724184 11.056269809477056
317 105 0 44.95166323229751 17.854740625038673 13.466810314478028
318 106 0 14.061897467290542 24.836373185800117 30.002803931649353
319 106 1 25.511713196528415 41.996281966495324 43.37140475284323
320 106 0 15.486887860902648 34.52914784822727 17.19073311968121
321 107 0 23.67807803216655 22.25570529060144 12.666433134567091
322 107 1 25.86732739225915 36.713543394700125 5.8204843584957136
323 107 0 38.492140860860566 36.74099252102595 7.7600485910369255
324 108 0 35.79567562696 25.755078951075976 39.397115052715705
325 108 1 10.655609699777095 26.76801887293356 15.754463067794598
326 108 0 13.73249493055402 28.7123837127323 36.7932087666501
327 109 0 41.94473516004022 32.77853496471364 32.52978376985074
328 109 1 45.74523817104792 24.67991572257106 43.13769956751179
329 109 0 30.27590504095094 21.677964130689404 28.131150710317517
330 110 0 7.653250441760119 22.20241361783361 9.05819313607687
331 110 1 23.49102057007214 36.04884716802492 3.082559701983437
332 110 0 25.245076663324895 43.84984289774927 9.1273191902428
