ITEM: TIMESTEP
121
ITEM: NUMBER OF ATOMS
99
ITEM: BOX BOUNDS pp pp pp
0 20.0
0 20.0
0 20.0
ITEM: ATOMS id mol type x y z
0 0 0 5.380107545665744 9.987955062697718 13.953461210797423
1 0 1 4.474796402953159 9.414668060892307 13.870129009654567
2 0 0 5.207067654038438 9.11002966031179 13.122509192901527
3 1 0 10.349373406758987 17.43406256112995 3.6854774663512035
4 1 1 10.359461706590416 16.583131361680337 3.154362859370178
5 1 0 9.625291084869833 15.058221168983279 4.05706949807842
6 2 0 6.673411744320264 3.0197028182520773 15.236160352651847
7 2 1 6.067308653774777 2.313206156426115 14.824492318921408
8 2 0 5.776199081633132 2.8259577955004644 14.006871770638535
9 3 0 3.4743432176203832 16.249152667879194 9.223918773910501
10 3 1 3.598951001833575 16.14744742472311 8.255758992574108
11 3 0 4.599433054318768 16.076453874467276 8.479706903867468
12 4 0 8.894989832402654 6.402750226286583 4.254945367705972
13 4 1 8.137425041568687 6.453807250072452 2.845697636825701
14 4 0 9.147363365644662 6.2204925985949515 3.915784478282244
15 5 0 6.778202263008823 15.703831301508593 16.397901999850372
16 5 1 6.496306426046213 16.698386488251067 16.889703992974475
17 5 0 6.554143712964517 16.365975681177215 15.859745684221014
18 6 0 2.357225600425896 12.542222407767659 15.107903051884412
19 6 1 1.8286141840262167 12.878207367587725 15.862788808404138
20 6 0 1.5784302427963548 11.960963568584257 16.092257819151627
21 7 0 12.596994913501476 5.195587633613928 13.859507266620579
22 7 1 11.468262679803889 4.448760009697752 13.256547730004058
23 7 0 11.167770394261439 4.926375043465855 14.091011659266472
24 8 0 2.3023160878194444 5.185403520202431 4.410910027396815
25 8 1 2.088893843522687 5.736977421167649 3.449210757454433
26 8 0 2.661777815060842 5.044871568703956 3.1506669616909417
27 9 0 4.90163780012075 15.414142606504672 3.8494799704069766
28 9 1 4.188910452874238 17.447821500427327 2.546443022571431
29 9 0 5.073408278350457 15.44250992043156 3.769455558922212
30 10 0 17.29696884043139 11.058499689539678 15.423761893895811
31 10 1 17.760174071773484 12.379663617708651 15.936338235546879
32 10 0 16.735960956667274 11.126873736281079 15.93873025434126
33 11 0 5.80502957665802 13.643253924310592 18.55857115643087
34 11 1 5.147663595359972 14.57574207849293 18.97101212074579
35 11 0 6.229265050368322 13.88946809619063 18.421634470929515
36 12 0 3.948632775838642 4.96922281885403 12.885180014227032
37 12 1 3.0247708068999315 3.52516077445252 12.53695166412889
38 12 0 3.9294332372985963 4.86561932934626 13.053710795756354
39 13 0 8.02979565860552 18.91662040074709 12.56732683123595
40 13 1 7.2424849688416515 19.123455258611 13.679785329332587
41 13 0 7.772069584368619 18.070873149934133 13.056788890570626
42 14 0 17.32671366347963 16.533056349173407 12.591027384510424
43 14 1 17.855032336145907 17.142043310589173 11.972969470432375
44 14 0 17.068804730884423 16.74478540069413 11.486883500816797
45 15 0 12.909668477834705 9.386993305382186 16.882172705488223
46 15 1 12.726050698821673 8.785563001731362 17.689244357453887
47 15 0 11.76430497740115 8.695417304905304 17.837397345985128
48 16 0 16.040355627657704 13.85739892934651 18.322186391575784
49 16 1 16.974707202677866 13.48192211829554 18.335916976391538
50 16 0 16.704557954197696 12.715975420847599 17.71573021840378
51 17 0 5.609039591419859 5.974601365683332 4.87051011996379
52 17 1 4.249734690874659 5.847628683993281 4.837981814694801
53 17 0 5.428370653558616 6.398447228175766 4.567050080720263
54 18 0 16.90028453387228 2.1391951574322676 8.559389773709558
55 18 1 16.859846792441154 1.300949561978063 7.989444470325546
56 18 0 15.914887111398876 1.1511327726781901 8.077315294466404
57 19 0 17.998045036670536 3.7810611463528367 8.089620445039117
58 19 1 18.868688011551065 3.7362759772336402 8.820791066508047
59 19 0 18.05287174273931 4.487851191745959 9.63155282235529
60 20 0 6.058607166618067 16.049464039007493 11.274658389663498
61 20 1 5.278673575779869 17.473845814706127 12.068816247735136
62 20 0 5.7796646707809085 17.478533847010755 12.886526902083377
63 21 0 13.77379044973461 6.044581497708667 11.346535287685374
64 21 1 13.632237306755322 7.071206709262149 11.474530145537447
65 21 0 13.284419325700302 7.314078871361946 12.384832502377254
66 22 0 13.707874435016583 1.5937261979367372 4.335482063538336
67 22 1 14.346772497384855 0.8526693488314757 4.518350091881281
68 22 0 13.64733791770166 0.5322086771483534 5.16108130736215
69 23 0 17.9770136338324 5.239221791077791 13.98689980947537
70 23 1 18.46142981170706 4.471050689970486 13.608569954476211
71 23 0 17.649279008855064 3.905762599465726 13.588614715917998
72 24 0 1.0049763444299413 18.258054728753674 11.951081955076676
73 24 1 1.121311669263538 18.397348491451154 10.928374619245256
74 24 0 2.0751020542562086 17.95907405008087 10.673220619543143
75 25 0 9.617546968810581 14.303766888718316 12.021637499468259
76 25 1 10.763049727169136 14.24070311372978 12.4186857696845
77 25 0 9.706028386142185 14.880972969920801 12.30737752500887
78 26 0 8.30760665897156 5.984478250064532 13.940602646558391
79 26 1 12.71971246380153 4.0425665171954215 16.342707125995027
80 26 0 13.130019776096612 4.17266329200811 17.479302956614998
81 27 0 6.352503095192451 9.830302101819301 15.687306377789271
82 27 1 6.573740715732371 9.513249365370077 16.60768221046511
83 27 0 7.33983671662314 8.903458504069192 16.641171678854104
84 28 0 8.86049895197706 8.04715494161166 16.269350117780117
85 28 1 9.727368596408496 7.362798250174402 16.76679450437826
86 28 0 10.117435065534718 7.167262548504388 15.845903437465623
87 29 0 15.809057890249731 3.063053394405193 5.181776316372089
88 29 1 16.66260182168567 2.1915291691264693 4.984178148743203
89 29 0 14.449285935463282 4.426687887472286 6.81706971917634
90 30 0 17.75264462924864 7.517851492218806 15.098951820264613
91 30 1 17.687132601991475 6.554235993126655 16.245731288880744
92 30 0 16.41379952293806 7.3633345221111055 15.440977484645986
93 31 0 15.715752229034523 3.3537965816690027 13.660954982140739
94 31 1 16.75599685352723 4.078777361543916 15.510845711534847
95 31 0 15.529956637963977 3.597736835303878 13.668599502815795
96 32 0 13.961511873744675 11.373639907706147 5.6042066897328295
97 32 1 15.128285506957232 10.573287907777106 5.677257310974934
98 32 0 14.235575721617124 11.70019284080627 5.332611531421352
