ITEM: TIMESTEP
122
ITEM: NUMBER OF ATOMS
99
ITEM: BOX BOUNDS pp pp pp
0 20.0
0 20.0
0 20.0
ITEM: ATOMS id mol type x y z
0 0 0 5.359817331944327 9.9900344570203 13.96739182249278
1 0 1 4.477543372993611 9.415057665581969 13.868952948290241
2 0 0 5.183425612449543 9.101668100522753 13.127335681134333
3 1 0 10.348110475912273 17.42782169986959 3.6848789452761466
4 1 1 10.356564244097013 16.57728467767789 3.1580303881689784
5 1 0 9.67293688630125 15.158013009054104 3.9989803042166976
6 2 0 6.670204621279085 3.010920476939559 15.237651434903084
7 2 1 6.067614282570594 2.3142350621086867 14.824203617262997
8 2 0 5.774622082586687 2.8181620213420575 14.010116249295441
9 3 0 3.4608705411969813 16.24995749107707 9.219367993260217
10 3 1 3.6001564581654764 16.147438715051784 8.256924095043086
11 3 0 4.593637183123478 16.075648796272226 8.465390103077814
12 4 0 8.839292874978714 6.414523854253146 4.190573826134888
13 4 1 8.14291852997436 6.453013485991436 2.8538102927395776
14 4 0 9.115325953444383 6.221442510972231 3.8502652230856156
15 5 0 6.776585004447731 15.713964960945086 16.4325178000978
16 5 1 6.49698886603536 16.695720659696576 16.887192368919383
17 5 0 6.544629626385683 16.39809490062115 15.865869481672586
18 6 0 2.3587285082184275 12.553699612984872 15.107226818202049
19 6 1 1.8288571686924213 12.87712000403848 15.862316321699446
20 6 0 1.5728644066548345 11.96691309527721 16.10048842275514
21 7 0 12.55142859798695 5.158094779902204 13.824335313205154
22 7 1 11.472262061093547 4.451765524314255 13.259249048648483
23 7 0 11.149319851456754 4.9155520503405725 14.08315507815686
24 8 0 2.2904646976562613 5.204962439702726 4.399102780656702
25 8 1 2.0908865422157104 5.735485705191138 3.4519027543552006
26 8 0 2.6615464213342346 5.050236177008738 3.132050005174875
27 9 0 4.835374769869138 15.577120704235089 3.748165423572864
28 9 1 4.1969497623325065 17.42747777041627 2.559166075670274
29 9 0 5.011023713734263 15.60504202379147 3.6671601686267987
30 10 0 17.33431945370458 11.119366627179248 15.434007170597988
31 10 1 17.754866089391676 12.371471090851461 15.935405816090274
32 10 0 16.780845207433583 11.200842365871475 15.951602114592795
33 11 0 5.761651758410325 13.647477364224239 18.577061140279344
34 11 1 5.152315762714252 14.572378886202888 18.9685747199807
35 11 0 6.198460516734713 13.939438709327888 18.441930314950785
36 12 0 3.892987106330399 4.8897896683173485 12.846202762398514
37 12 1 3.031418153144356 3.535334333748718 12.540014069503036
38 12 0 3.8785466831326363 4.782305046236716 13.043570455076486
39 13 0 7.999149887050546 18.944122887150936 12.607987793080031
40 13 1 7.246055721167307 19.120072876855456 13.674856041193683
41 13 0 7.744221287391459 18.096440765158583 13.093691521079696
42 14 0 17.3442258997721 16.541642721490813 12.602579773921763
43 14 1 17.85328649401666 17.140687248394368 11.973201176440721
44 14 0 17.079237391377152 16.75792516691523 11.471602059246292
45 15 0 12.9076711179006 9.38230588967259 16.888488017644935
46 15 1 12.726046331071316 8.78582563073671 17.68890433018057
47 15 0 11.76630747216187 8.695995371719366 17.836613778877805
48 16 0 16.0487673073725 13.86244330097546 18.328254212585495
49 16 1 16.973656666010626 13.48121836585088 18.33471997545499
50 16 0 16.715695612014137 12.718507115417701 17.720649855830413
51 17 0 5.558068912459906 5.948190944723348 4.883988330780935
52 17 1 4.255122844208198 5.849221486247275 4.836647421338345
53 17 0 5.373155793329648 6.398290396175548 4.562341666770284
54 18 0 16.906757698639144 2.133831316103077 8.554398821481358
55 18 1 16.859427346794565 1.3017161137432949 7.989974342813951
56 18 0 15.91542563065614 1.1448924840227848 8.072924948237171
57 19 0 18.021368182986713 3.77428608039532 8.097366760131566
58 19 1 18.864887785250875 3.738514282354007 8.821956948702923
59 19 0 18.090163800638273 4.45849305212233 9.605008365768981
60 20 0 6.00985497429406 16.136724873386648 11.321736746420576
61 20 1 5.282018649864178 17.468152778376208 12.065816311248506
62 20 0 5.776462774133668 17.48362010567607 12.88870632826213
63 21 0 13.77169898699092 6.054946911074196 11.349695537085086
64 21 1 13.63224967938395 7.0707838868658035 11.47460659642388
65 21 0 13.286378644853196 7.310668857527589 12.380250296083519
66 22 0 13.719630333211574 1.5957730562973538 4.327146492315203
67 22 1 14.345900928554093 0.8534430515248789 4.518993965751126
68 22 0 13.659047088522652 0.5233228956806736 5.160923814901405
69 23 0 17.986504184200207 5.241957587130372 13.985754573292436
70 23 1 18.45942492344392 4.470979754326662 13.609885100040827
71 23 0 17.657278925927844 3.9008151221441874 13.585219313396143
72 24 0 1.0045698886868932 18.260213955756157 11.941040100196048
73 24 1 1.12219412888501 18.396801003851404 10.928871680463347
74 24 0 2.0611331454537165 17.965804203042715 10.675364044475268
75 25 0 9.651188870713161 14.27422107444833 12.021161832052215
76 25 1 10.758255064438222 14.242344682820738 12.417625389805803
77 25 0 9.749144103625012 14.884238864067653 12.32479237425132
78 26 0 8.780567538601748 5.77646576821913 14.198566965270098
79 26 1 12.69127345311772 4.055480680976313 16.328444086071265
80 26 0 13.111854465110069 4.1738412485556875 17.449398329145033
81 27 0 6.355401661075911 9.827483304860362 15.690939254817835
82 27 1 6.573652620493946 9.513323733225118 16.607613486172884
83 27 0 7.338153293686247 8.905175562118076 16.638647736292423
84 28 0 8.881197165601515 8.030024560362644 16.289272218848016
85 28 1 9.725815448265664 7.364134324209468 16.764864122802813
86 28 0 10.12169781484797 7.163042104715266 15.856995007260517
87 29 0 15.830187246197768 3.042159688849796 5.143538149906938
88 29 1 16.647316301853106 2.2059676944859414 4.99730094264079
89 29 0 14.663137135092045 4.210619275951126 6.644424477099966
90 30 0 17.76433280246731 7.4714925051260295 15.152372613220646
91 30 1 17.682136419343646 6.55979757287702 16.23893075647466
92 30 0 16.47892626603731 7.312083681272272 15.493814017235863
93 31 0 15.800229626437083 3.3984465710237175 13.798288214720507
94 31 1 16.746488303302563 4.0738792081625625 15.492668389205074
95 31 0 15.615735692113578 3.6433446715116666 13.808282867390002
96 32 0 13.997828897015248 11.322875827954245 5.620988147624667
97 32 1 15.122376914104938 10.579029363602102 5.675939430694445
98 32 0 14.293804930971843 11.659106324272534 5.336899110829535
