ITEM: TIMESTEP
123
ITEM: NUMBER OF ATOMS
99
ITEM: BOX BOUNDS pp pp pp
0 20.0
0 20.0
0 20.0
ITEM: ATOMS id mol type x y z
0 0 0 5.339121671643829 9.993033792083907 13.982529010944459
1 0 1 4.480363998270009 9.41546134745664 13.867749540227287
2 0 0 5.159013767604229 9.092155029189474 13.131386900660898
3 1 0 10.346623733022511 17.421088888665444 3.6845396293584463
4 1 1 10.353781096274474 16.571662174653863 3.161549866829748
5 1 0 9.71898065072827 15.254710365702518 3.9429998259624983
6 2 0 6.6672071271805375 3.0021177352953194 15.239477489333163
7 2 1 6.067921832721081 2.3152729435789383 14.823910448743232
8 2 0 5.772817930848918 2.8102284902722383 14.013111648425195
9 3 0 3.446708709442896 16.250812617036072 9.21468938173464
10 3 1 3.6013819918712566 16.14743176703418 8.258136807962275
11 3 0 4.588211424092435 16.07474774358721 8.450411446264482
12 4 0 8.782049566017252 6.427863133532657 4.130474029466703
13 4 1 8.14824708235976 6.452252690366404 2.861719401168187
14 4 0 9.087492543210944 6.220302057443561 3.7837218963272004
15 5 0 6.775452662131867 15.722814023285828 16.469343412578496
16 5 1 6.497687521221787 16.692979069086956 16.88458615379304
17 5 0 6.534344163129204 16.43265910943212 15.871367830185584
18 6 0 2.360381225674703 12.565645445054459 15.106402706646522
19 6 1 1.8291069961803812 12.875993882730041 15.861828171240605
20 6 0 1.5670176028457485 11.973017599719224 16.109116854196866
21 7 0 12.508452625761482 5.121354474492798 13.789133432681787
22 7 1 11.476195105250762 4.454764576324108 13.261981332642382
23 7 0 11.12937682494355 4.904036102285274 14.074930097116003
24 8 0 2.278206546408695 5.224799676144863 4.38849236894365
25 8 1 2.0930688398254187 5.733950238121966 3.4546581505744425
26 8 0 2.661055405285902 5.056169187400233 3.1126817423642064
27 9 0 4.769202384295247 15.733120054336135 3.652123865488314
28 9 1 4.204659285420293 17.40796557915518 2.571369089155007
29 9 0 4.953822427765144 15.761249805952993 3.5679070557882495
30 10 0 17.373575008033917 11.17797202696069 15.44113255486304
31 10 1 17.749649829643804 12.363513682809518 15.934579493568151
32 10 0 16.822063622600098 11.273768625896757 15.966837097518447
33 11 0 5.7152043999150575 13.648735006182479 18.596361487312084
34 11 1 5.156964847203211 14.569049561067574 18.96614223673523
35 11 0 6.170806535008825 13.991882919551697 18.461308827538478
36 12 0 3.8391198504373887 4.814676706862943 12.804220239813594
37 12 1 3.0378268582162042 3.545150591876885 12.542953778029919
38 12 0 3.8296780136347857 4.700392003844003 13.03838352886063
39 13 0 7.969597621543422 18.97414724576341 12.646709697730271
40 13 1 7.249584259138363 19.116714352838006 13.669959563325033
41 13 0 7.715789493771078 18.11897680744222 13.131852072761912
42 14 0 17.362607834082812 16.550541922059686 12.61501976994645
43 14 1 17.851457301819263 17.13926864505268 11.973438018593251
44 14 0 17.090135379994848 16.771756307713837 11.455348221245341
45 15 0 12.905668884489556 9.377774721970676 16.89459636616377
46 15 1 12.726045047292569 8.786077487806882 17.68858003541573
47 15 0 11.76826031291095 8.696602803893102 17.83579796629276
48 16 0 16.057213249797964 13.867914766506779 18.334629559145736
49 16 1 16.97259540051347 13.480485280898643 18.333456901020416
50 16 0 16.727269977428033 12.720631998619998 17.72538254147474
51 17 0 5.508658919584277 5.918759811677742 4.899620025044382
52 17 1 4.26031208434259 5.850785609179441 4.8352348137028605
53 17 0 5.317175316635612 6.401463283986602 4.555277756747538
54 18 0 16.913577169651692 2.1286888135486057 8.54949149055603
55 18 1 16.858984942505224 1.3024914911858738 7.990500454014219
56 18 0 15.916014276316238 1.1383957098205026 8.068349919287641
57 19 0 18.04467095578484 3.7670023400552357 8.104014319269528
58 19 1 18.861116407226906 3.7407186793722884 8.823084956126957
59 19 0 18.126991222557496 4.430143729769906 9.580151050801724
60 20 0 5.962581030341601 16.221108033701373 11.367040951014545
61 20 1 5.28529646027217 17.462640347918793 12.062945257769153
62 20 0 5.773049530495032 17.488848337314796 12.890747789798557
63 21 0 13.769602200291732 6.064978444817419 11.352959543090595
64 21 1 13.63226562213647 7.070390632685379 11.474665395938331
65 21 0 13.288294427474556 7.307143064142628 12.375821790083421
66 22 0 13.731840737228787 1.5981321880786739 4.318325492485978
67 22 1 14.345056015953437 0.8542860634752902 4.519675829073756
68 22 0 13.671169967307645 0.5138693097456142 5.160962243005457
69 23 0 17.996249239269723 5.245026273155209 13.984678736570887
70 23 1 18.45723694657458 4.470874955437025 13.6113731585708
71 23 0 17.665307244679838 3.8954436218034747 13.581701670543262
72 24 0 1.0040748058988247 18.262360612540746 11.93129583577488
73 24 1 1.123053328444651 18.396266850411223 10.9293617910342
74 24 0 2.047593851398685 17.972349666075687 10.677328084695342
75 25 0 9.684646800337664 14.24135965005263 12.019164902800833
76 25 1 10.753417311165979 14.24400035668401 12.4165549486626
77 25 0 9.79313867317379 14.890592782665792 12.343886081971219
78 26 0 9.238070276432627 5.575350981476296 14.448420525885636
79 26 1 12.66394577802283 4.067901515772433 16.314776333111936
80 26 0 13.09130117532359 4.175996354836091 17.417979933908367
81 27 0 6.358371241882263 9.824637265099765 15.694409141254209
82 27 1 6.573556078183817 9.513401243450192 16.607562573700562
83 27 0 7.336510634999826 8.906879341002632 16.636000956488246
84 28 0 8.900863254559473 8.013638479383971 16.309320779815636
85 28 1 9.724294710933771 7.365449312266082 16.762919612373178
86 28 0 10.126482559067881 7.158426501188077 15.868208776263135
87 29 0 15.849060782376629 3.0237072186110714 5.1002467994202085
88 29 1 16.632524193893353 2.2197663756317603 5.010296208952514
89 29 0 14.870054742202703 4.001421853524248 6.478714168973937
90 30 0 17.778445278713328 7.426594915761157 15.203739540380587
91 30 1 17.677227472881135 6.565192489566095 16.232280573241688
92 30 0 16.540088976862325 7.261618676818508 15.546146051890137
93 31 0 15.883295479669108 3.438692919461865 13.92980481879177
94 31 1 16.73756768441004 4.069266290583131 15.475029214953173
95 31 0 15.696357908876694 3.6898332549367203 13.942628924978424
96 32 0 14.030536203139457 11.270431589920054 5.6398759801508955
97 32 1 15.11659718377922 10.584661384090122 5.674641376404624
98 32 0 14.353583126799876 11.621452445845788 5.3387610420505425
