ITEM: TIMESTEP
126
ITEM: NUMBER OF ATOMS
99
ITEM: BOX BOUNDS pp pp pp
0 20.0
0 20.0
0 20.0
ITEM: ATOMS id mol type x y z
0 0 0 5.272614754641917 10.008697392449488 14.037530529217864
1 0 1 4.489555383025171 9.416807553526109 13.863863675138507
2 0 0 5.078555183871116 9.054729648392849 13.138301370666708
3 1 0 10.340283970874788 17.39710337740328 3.6859033456026578
4 1 1 10.346229349070878 16.556283268731146 3.171031144905848
5 1 0 9.84625868347878 15.524776400477018 3.789902708228148
6 2 0 6.6597031900375 2.975288019120914 15.247535541609802
7 2 1 6.068869618100526 2.31848393402511 14.82298996825705
8 2 0 5.765644521341212 2.7851532051750416 14.020312636136456
9 3 0 3.3986835806460682 16.253767254886164 9.199482496764777
10 3 1 3.6052503287862216 16.14742240511198 8.262172842726747
11 3 0 4.5744274924759365 16.071303562432732 8.400011223163633
12 4 0 8.587834114761367 6.484152045594805 3.980523768033306
13 4 1 8.163636300319457 6.450105183387923 2.8847645405893374
14 4 0 9.036202283660874 6.1984783202351235 3.564567974204876
15 5 0 6.775252437560041 15.74157941139429 16.599217965989407
16 5 1 6.4999609547818284 16.683939289861932 16.875745584736265
17 5 0 6.497192202720975 16.556675515658338 15.885498492656986
18 6 0 2.366500749348828 12.605370507218954 15.102812655404387
19 6 1 1.8299134174997844 12.872289335879744 15.860230543098737
20 6 0 1.5471958478852945 11.992696052110679 16.138244205308755
21 7 0 12.398612967117245 5.01482737591227 13.680585437922725
22 7 1 11.487544966784307 4.463894170085288 13.270682514954931
23 7 0 11.057904440729965 4.8633059295731655 14.04623491311063
24 8 0 2.2379007831247084 5.287232579025004 4.365291195100693
25 8 1 2.101428290402459 5.728977847083339 3.4636626569749485
26 8 0 2.6576345619696378 5.078372055131237 3.048663299078114
27 9 0 4.556338935924996 16.15462570090973 3.4042155024512994
28 9 1 4.225674904660636 17.35474672797198 2.604652861537459
29 9 0 4.830346951143057 16.191296406922156 3.283084380842985
30 10 0 17.51405872570752 11.342499773672847 15.435934358625621
31 10 1 17.73417982082619 12.340605378658244 15.932832692751926
32 10 0 16.91724763434458 11.492883285426073 16.036632138028356
33 11 0 5.545505486817579 13.63314574792134 18.66379453675061
34 11 1 5.171444118076354 14.558627032625765 18.958545158379504
35 11 0 6.109993271802058 14.176007788298303 18.514435692507945
36 12 0 3.685873796587532 4.6188148426980025 12.64223461977156
37 12 1 3.0558309853605055 3.572788981636532 12.551120704137135
38 12 0 3.6940563554074566 4.454184181400875 13.069151658013578
39 13 0 7.886784460466674 19.08876469971237 12.750969624148734
40 13 1 7.260211633500905 19.10641233482094 13.654994065738483
41 13 0 7.622366633597742 18.16441605329637 13.261136203322216
42 14 0 17.424978567644846 16.580090259236698 12.659017926242337
43 14 1 17.845263041371876 17.134481404824754 11.974195633531744
44 14 0 17.12692508576678 16.818936096278083 11.399129878689314
45 15 0 12.899554576865953 9.365229449292679 16.911538537520663
46 15 1 12.726065699271283 8.786760126737907 17.687717721720773
47 15 0 11.773783257183577 8.698671367118024 17.833084821949235
48 16 0 16.083143009203535 13.88762584216028 18.35622800729464
49 16 1 16.96933166156552 13.477993670476634 18.32902177027942
50 16 0 16.765631733380104 12.724004132810869 17.7382525234502
51 17 0 5.365999168526871 5.802115796902761 4.965971105103988
52 17 1 4.274940915990068 5.855494752946372 4.8300971114935605
53 17 0 5.1349665493015015 6.437564510851788 4.514563192017157
54 18 0 16.936865067799786 2.114760998937492 8.535243125907035
55 18 1 16.85747387592102 1.304921515542903 7.992046890117248
56 18 0 15.918168977495526 1.116772571457977 8.053098059208326
57 19 0 18.11582135590788 3.7407166637103053 8.115710708828766
58 19 1 18.84979791402808 3.747168441160466 8.826181346055613
59 19 0 18.236073888311626 4.351736606192296 9.51825734937052
60 20 0 5.830278705738269 16.45509596114038 11.490609341301901
61 20 1 5.294755545348548 17.447314881460553 12.055249708209804
62 20 0 5.761138864136831 17.505804501843517 12.895994187817777
63 21 0 13.763202323219923 6.092848957803724 11.363655263041245
64 21 1 13.632342442648802 7.069425609374058 11.474705020719767
65 21 0 13.293765997221813 7.295580544716347 12.363580987233902
66 22 0 13.772351084557418 1.607568235390795 4.287951631548886
67 22 1 14.342824483439712 0.8574566813621008 4.522072032844834
68 22 0 13.711181151883105 0.48101144023067993 5.162431388987687
69 23 0 18.02741942221905 5.256846415829195 13.982011064440556
70 23 1 18.448897109392277 4.4702110553287415 13.617540017819591
71 23 0 17.689511537956193 3.8759940603037744 13.570245292578715
72 24 0 1.0019073641029554 18.268761837173262 11.904054490211474
73 24 1 1.1254761881607571 18.39475197061421 10.930792935367853
74 24 0 2.009833053769339 17.990778665088637 10.681923109861987
75 25 0 9.788970806850427 14.114349616208969 12.00218100711658
76 25 1 10.737871706536465 14.249280505562076 12.413095535806141
77 25 0 9.937742304380818 14.933051694171494 12.416097162205666
78 26 0 10.507415901938453 5.018520991311961 15.145182076230027
79 26 1 12.58958465245982 4.101692398101441 16.277600447464422
80 26 0 13.010354770265948 4.191267534909646 17.31418903540077
81 27 0 6.367916812125117 9.815806209392546 15.703690404209572
82 27 1 6.573196260895967 9.513661160815692 16.60754318938063
83 27 0 7.33184367039291 8.91194003551401 16.627048852117234
84 28 0 8.95261159274384 7.969604637257253 16.371409309907236
85 28 1 9.719934832828335 7.369275608208755 16.75688933322103
86 28 0 10.144901611409624 7.141458774323613 15.903233487956035
87 29 0 15.89820751548419 2.9773575491203417 4.92181528362089
88 29 1 16.590603066726118 2.25733743319353 5.04895188305954
89 29 0 15.446629611879915 3.417196751288248 6.0339174229871055
90 30 0 17.845106152230194 7.299419262599424 15.345803260170705
91 30 1 17.662799743146206 6.580524554697567 16.21284157327912
92 30 0 16.692708760292895 7.111253933764924 15.70527319455106
93 31 0 16.133899629220323 3.5179972786170337 14.286836691622666
94 31 1 16.715105767708447 4.05749760053886 15.424875788839595
95 31 0 15.896601732044937 3.848911324438065 14.313949707572807
96 32 0 14.103522935124765 11.091092519785587 5.7169906448311325
97 32 1 15.099466413848246 10.601413644690936 5.670760243062453
98 32 0 14.55472856184141 11.532812657761992 5.323667280431667
