ITEM: TIMESTEP
130
ITEM: NUMBER OF ATOMS
99
ITEM: BOX BOUNDS pp pp pp
0 20.0
0 20.0
0 20.0
ITEM: ATOMS id mol type x y z
0 0 0 5.170351210073617 10.049467577721144 14.139575573789394
1 0 1 4.504036069091857 9.419033837688351 13.857873347306004
2 0 0 4.949423513175005 8.977717267468899 13.131424408546431
3 1 0 10.324665712565539 17.35456694993 3.6991122584639804
4 1 1 10.339777569548431 16.542041666733414 3.178503740510879
5 1 0 9.965427382040604 15.795229350020533 3.6570385024264507
6 2 0 6.655706466017354 2.940196626480964 15.266960183311804
7 2 1 6.070164138137857 2.3228300216251054 14.821712374839658
8 2 0 5.750337156483139 2.749189867054736 14.0228463749485
9 3 0 3.318923453658949 16.258802620829854 9.176106162142606
10 3 1 3.610803118165702 16.147427339349996 8.268626975974144
11 3 0 4.565581795482005 16.064365452910472 8.317191599580214
12 4 0 8.198880131252809 6.635060713274488 3.8669090495198275
13 4 1 8.186449939691807 6.446748093501849 2.9178913856745234
14 4 0 9.062154182055602 6.10157810256477 3.1471217591032032
15 5 0 6.7828354839879035 15.749904617691966 16.835789872154905
16 5 1 6.50358740857081 16.66885862766733 16.8599878302215
17 5 0 6.42880017908181 16.784299581946236 15.908397033797748
18 6 0 2.378360996039264 12.66923913352674 15.094267494954629
19 6 1 1.831099790469707 12.866472288541727 15.85774446599828
20 6 0 1.5140760225135332 12.022268842522555 16.18649517618266
21 7 0 12.3315420678533 4.888462341491151 13.524065911037074
22 7 1 11.49986534815902 4.476253069661797 13.284526162577869
23 7 0 10.92979189902007 4.788178350260312 13.991519334125606
24 8 0 2.1754650315030144 5.375337198344471 4.36718164163544
25 8 1 2.1225496429764847 5.721850061865958 3.480054461865838
26 8 0 2.6472949349272983 5.120446644004388 2.9496523493525357
27 9 0 4.077253825866911 16.5676181071241 3.25337387908964
28 9 1 4.247816705663368 17.298587749299013 2.639767784515298
29 9 0 4.954900734034679 16.676996072474353 2.871536267745628
30 10 0 17.814307862604 11.556842468185488 15.331684940787841
31 10 1 17.711912979742518 12.309619911122894 15.932923806826077
32 10 0 16.940270037507233 11.823680784802907 16.243099712869817
33 11 0 5.200186557547304 13.583327187165832 18.798216513785054
34 11 1 5.194645389273997 14.539399918558859 18.94591697182943
35 11 0 6.0873719055884035 14.53856928732677 18.579204657479426
36 12 0 3.475499963830732 4.431175562437194 12.225869037431332
37 12 1 3.0798149955807443 3.609698978550206 12.562052248037299
38 12 0 3.518384581067181 4.051696393989602 13.30904814277912
39 13 0 7.788463554966656 19.34059729161036 12.858519824121874
40 13 1 7.275425183700282 19.090323113946436 13.632370223319306
41 13 0 7.459338204573715 18.15620054996833 13.49868972449563
42 14 0 17.529082762606922 16.628099421071262 12.736086179528561
43 14 1 17.834917552869822 17.126542077689848 11.975316634940356
44 14 0 17.188497926205578 16.898330762529405 11.303848174009554
45 15 0 12.891435786510408 9.353326596301383 16.927761538646884
46 15 1 12.726185519941374 8.787365238018927 17.687053630874605
47 15 0 11.779339617887093 8.702228265245004 17.82876250834047
48 16 0 16.11833915084345 13.923342224211385 18.391781292001188
49 16 1 16.96542417227679 13.47317653165285 18.319714414231573
50 16 0 16.82658052928319 12.716929939574408 17.74837950320579
51 17 0 5.157686769359667 5.537158891847739 5.125617641447549
52 17 1 4.291795540455509 5.862889116741298 4.81726968055058
53 17 0 4.806247918685656 6.567741905827046 4.3957639795014005
54 18 0 16.976384436362785 2.102666439626114 8.519091827168223
55 18 1 16.854951216038742 1.308524700831278 7.993616918207441
56 18 0 15.92220833166772 1.0818181229889832 8.02844535344916
57 19 0 18.21229385321385 3.690852169778394 8.10108741160474
58 19 1 18.83505711376721 3.7547311384363637 8.828821055619946
59 19 0 18.372965462011628 4.27621143793816 9.488776902562556
60 20 0 5.697449275722574 16.679485763747124 11.59924573411032
61 20 1 5.305599790825919 17.43271357250996 12.049178963345748
62 20 0 5.741048682802784 17.531591818176214 12.900706591199691
63 21 0 13.754768923374577 6.119735519323383 11.380417399465992
64 21 1 13.632557936077278 7.069028056217785 11.474210219722453
65 21 0 13.299599342540287 7.2775286463104125 12.3521316857326
66 22 0 13.837841289546446 1.6278188002205143 4.235484483800548
67 22 1 14.342986838233918 0.865049599799585 4.5269289899626575
68 22 0 13.775993972568322 0.4239033326172268 5.168179312846012
69 23 0 18.069533034036787 5.2816201704692 13.981646815551892
70 23 1 18.427208517655316 4.466787869811438 13.636651482356429
71 23 0 17.71525603819098 3.8396684821231046 13.554209333953153
72 24 0 0.9967628177974305 18.27656316986427 11.87742081586208
73 24 1 1.1278950867153144 18.39320417950418 10.932432640663476
74 24 0 1.972980442404311 18.009431504027447 10.683048373201988
75 25 0 9.964436836796068 13.851790171352953 11.952164959743836
76 25 1 10.711011627231578 14.258047549545923 12.406951151476793
77 25 0 10.19260966006545 15.055137086392886 12.564069603544052
78 26 0 11.71767238904172 4.503899221067279 15.85743568122808
79 26 1 12.525037321775297 4.129598223913799 16.24129235155551
80 26 0 12.828017703206488 4.257174479404376 17.173050752228562
81 27 0 6.382291210543265 9.803687764694864 15.71122155530867
82 27 1 6.572448588157947 9.514100777881795 16.60800406983032
83 27 0 7.326950862208965 8.918092067373601 16.61212666342982
84 28 0 8.991446309506859 7.93266046830222 16.457661608592005
85 28 1 9.715228615732716 7.373640885003961 16.74854031637127
86 28 0 10.182260926802801 7.109184664141853 15.95221081621562
87 29 0 16.012389662534385 2.8696337112096777 4.51215926883066
88 29 1 16.537756074078793 2.296723381223367 5.092177255335127
89 29 0 16.04497452189132 2.8030566290092707 5.736495543390251
90 30 0 18.04480141095831 7.145117910303769 15.503072942175253
91 30 1 17.64415767216274 6.598680074178409 16.18640359026864
92 30 0 16.76432746208574 6.898338849054691 15.9468088244349
93 31 0 16.56667826183449 3.39273171386319 14.660333504050033
94 31 1 16.70271333376305 4.049666609964087 15.358017700328384
95 31 0 15.973350345702933 4.2413597557785145 14.746788691548971
96 32 0 14.14182521282122 10.738286510346674 5.902629476416929
97 32 1 15.072941900147196 10.626807062786366 5.665054320017586
98 32 0 14.940932276383311 11.479485651652288 5.229104688934689
