ITEM: TIMESTEP
132
ITEM: NUMBER OF ATOMS
99
ITEM: BOX BOUNDS pp pp pp
0 20.0
0 20.0
0 20.0
ITEM: ATOMS id mol type x y z
0 0 0 5.1246571442812225 10.075105228414321 14.192692304814276
1 0 1 4.5106670565769535 9.420083527369775 13.855195076521497
2 0 0 4.889367501197102 8.934600432174165 13.12044619580271
3 1 0 10.314371948414717 17.334323180454202 3.7124588445780753
4 1 1 10.339709924989076 16.5404227706505 3.1777534520714505
5 1 0 9.97717039182984 15.841432676028868 3.655591273322976
6 2 0 6.658046245471938 2.9279425568375386 15.279447279281158
7 2 1 6.070685390767022 2.324399931910768 14.821259823912632
8 2 0 5.741262585641541 2.7346051176775434 14.019306708158561
9 3 0 3.2803174815298313 16.261272233101533 9.165888083730268
10 3 1 3.613068949112179 16.14739297175902 8.271539039604034
11 3 0 4.56820398656032 16.060396884057848 8.277533445442373
12 4 0 7.961036574435383 6.73387912170533 3.8292386962064557
13 4 1 8.200015365508936 6.444451461615437 2.935913177505008
14 4 0 9.085192178258607 6.0398354139593 2.895324963461935
15 5 0 6.788503545834442 15.749019801524794 16.958174561433463
16 5 1 6.505222361294361 16.66124870649151 16.851843189970936
17 5 0 6.393875059713023 16.90093488456589 15.924583535130461
18 6 0 2.3850363860999666 12.69929139884796 15.088712755698642
19 6 1 1.8315419082178086 12.863825311190496 15.856617337317365
20 6 0 1.4977673239337188 12.03497976408432 16.210001815937492
21 7 0 12.353626924599952 4.849711983846215 13.457209678086627
22 7 1 11.502657397287605 4.480826428144003 13.291458742199941
23 7 0 10.866272904036721 4.749066307227662 13.961430422470716
24 8 0 2.1497968919365067 5.406187440051473 4.390063473247314
25 8 1 2.1445773236326104 5.719979652898844 3.4935971711088913
26 8 0 2.641558137173392 5.140217610611743 2.907912058011157
27 9 0 3.6992061288078752 16.73520814301004 3.2546490235951278
28 9 1 4.257926100870618 17.273038336479054 2.655710060906153
29 9 0 5.170897183771613 16.918364720227533 2.614560239575553
30 10 0 17.997111925831565 11.669157837986136 15.25612096878044
31 10 1 17.70005646721139 12.29527219743875 15.936005769197276
32 10 0 16.910013985477654 11.997861494305745 16.3873426880621
33 11 0 5.005669255761692 13.576334915327404 18.877140443266924
34 11 1 5.206989272608419 14.527246781175212 18.93880954458285
35 11 0 6.088025903213149 14.745750602329997 18.610823324055556
36 12 0 3.354082669077499 4.339644215123413 11.945550892747654
37 12 1 3.093676481730664 3.630976105692035 12.568781111747558
38 12 0 3.4154085121560995 3.803296342182768 13.479942973992197
39 13 0 7.750297644392368 19.49031594438835 12.892979987072641
40 13 1 7.28190902299862 19.08174927032111 13.620918968801275
41 13 0 7.372951333772741 18.127672067777993 13.628128437603094
42 14 0 17.579307907480548 16.650725056979507 12.774764056380192
43 14 1 17.829925741326097 17.12274364250404 11.97578506311417
44 14 0 17.218309513506647 16.93689903939417 11.257365833008322
45 15 0 12.888460432841427 9.352004388767359 16.92974586512159
46 15 1 12.72628251240042 8.787424471673782 17.68714052010313
47 15 0 11.780094109165649 8.704139032774894 17.826845120387958
48 16 0 16.13236413450466 13.940769541290367 18.408214419854136
49 16 1 16.965177951576607 13.469283816836114 18.311545399674408
50 16 0 16.854358057993846 12.705918225068432 17.745151721147785
51 17 0 5.032892511206131 5.381175848075359 5.2182168959308175
52 17 1 4.291543884523516 5.866485075379351 4.803640991814408
53 17 0 4.611592133554294 6.645120036827201 4.324208254611472
54 18 0 16.996113359190172 2.1022457072451965 8.515062389456563
55 18 1 16.853787829639337 1.3103850819764495 7.99343115870404
56 18 0 15.924403545908818 1.0650601891221936 8.016779808465335
57 19 0 18.24811420798947 3.664368808895777 8.078037915569803
58 19 1 18.8297924936728 3.756713697497047 8.828793831071607
59 19 0 18.41853790843518 4.265936277872465 9.510150426244486
60 20 0 5.675681869704811 16.707420796479497 11.60440971145568
61 20 1 5.308964665267933 17.431482269500417 12.049875293120598
62 20 0 5.732769427628643 17.54244564125277 12.902934174769465
63 21 0 13.751792891052366 6.123205551590855 11.388045548566435
64 21 1 13.632727239258248 7.06949329954142 11.473617141097668
65 21 0 13.300808550746623 7.269400721382908 12.35105882546019
66 22 0 13.869965241064465 1.6402591934505548 4.207933567990137
67 22 1 14.348795497758227 0.8725501350319045 4.530900062770456
68 22 0 13.809266239306375 0.39489975313388836 5.171121944238245
69 23 0 18.076910046940732 5.297485305850666 13.985165313578966
70 23 1 18.401897909174867 4.460990081249707 13.662057407950865
71 23 0 17.709773849519948 3.8202363217097375 13.550936529394171
72 24 0 0.9934931567272877 18.27888952687697 11.874014788015511
73 24 1 1.1281808842038854 18.392984428910605 10.932861048843238
74 24 0 1.967986735626299 18.012520914419277 10.680422335885805
75 25 0 10.062967243370512 13.709718520293379 11.926423386514314
76 25 1 10.69621276241824 14.262659664771476 12.403453925190647
77 25 0 10.331512048658267 15.123182965492834 12.645367450083176
78 26 0 11.851094512241456 4.485268437951588 16.04867190412534
79 26 1 12.523802898404488 4.126756854343611 16.23086819638251
80 26 0 12.707905372743369 4.319283562126358 17.135163829005943
81 27 0 6.3886592702110985 9.799144649116986 15.71094520403253
82 27 1 6.571937317082413 9.5143413796178 16.608471602246357
83 27 0 7.325982078116174 8.919960890199222 16.604850064169057
84 28 0 8.987281758688301 7.932411355958324 16.491105825606663
85 28 1 9.714223360052957 7.374786807760793 16.74539814079093
86 28 0 10.203433346820084 7.091740951743445 15.970822066939458
87 29 0 16.122090226592025 2.7597221223865533 4.300563477533825
88 29 1 16.51047610781185 2.3078144902252187 5.09629499700155
89 29 0 16.21360957988052 2.623570608739713 5.861786026972282
90 30 0 18.18430104929024 7.083909486958939 15.55788790312077
91 30 1 17.63648257465572 6.603713919505225 16.173806251340434
92 30 0 16.72047813856519 6.799726350800512 16.067766625872043
93 31 0 16.856843365251095 3.2209843001245884 14.825821050424972
94 31 1 16.714114263229348 4.052447811586366 15.31035366571333
95 31 0 15.936719101262625 4.5428960377993395 14.964990691864994
96 32 0 14.159173313763635 10.530285383244943 6.013760325177897
97 32 1 15.057679634886018 10.640778784143189 5.6621271961436594
98 32 0 15.167908617041766 11.464119699797234 5.16456337852524
