ITEM: TIMESTEP
134
ITEM: NUMBER OF ATOMS
99
ITEM: BOX BOUNDS pp pp pp
0 20.0
0 20.0
0 20.0
ITEM: ATOMS id mol type x y z
0 0 0 5.097733406569041 10.096159642156541 14.229300881427273
1 0 1 4.514726773430491 9.420668541911509 13.853592243802387
2 0 0 4.852116838189423 8.902685734779235 13.107950325467362
3 1 0 10.30604585405312 17.3239180342973 3.7268258659127174
4 1 1 10.341637093241848 16.542536004824015 3.174363302992907
5 1 0 9.955484020374168 15.81815331948635 3.6952333724591933
6 2 0 6.662512096561793 2.9230059903678582 15.28985028648686
7 2 1 6.07106350178856 2.3249565597712216 14.821192283329744
8 2 0 5.734350726885936 2.7267949267970133 14.013775228464214
9 3 0 3.2547880437701573 16.262806219761686 9.16007117716122
10 3 1 3.6142990690823855 16.147204791030184 8.27306643219036
11 3 0 4.574654289589656 16.05732434265153 8.251635597343764
12 4 0 7.7763031944195244 6.808742924889236 3.7903302993252166
13 4 1 8.211883413896693 6.442335768875245 2.950547495286652
14 4 0 9.084993725871653 5.999555255037466 2.6976502775983264
15 5 0 6.793888767665944 15.745424099195686 17.042475062236832
16 5 1 6.505944252632183 16.65565864771926 16.846832048984588
17 5 0 6.37012047556671 16.9806177354981 15.93878464450612
18 6 0 2.3900680691732994 12.718579111686525 15.084003802666581
19 6 1 1.8315644167369385 12.862230243684298 15.855918179032255
20 6 0 1.4866894590911577 12.042124879953503 16.22571137183319
21 7 0 12.40167885423647 4.839291258163069 13.419963570946244
22 7 1 11.502806381970094 4.482392384851784 13.297129956631052
23 7 0 10.82384799590424 4.723616425908273 13.94134765917063
24 8 0 2.141618274996733 5.404627887128871 4.428293500399065
25 8 1 2.1955767021546215 5.723211163999989 3.5230987181447264
26 8 0 2.639576747398554 5.1436995876124705 2.8908671595063953
27 9 0 3.383927652913431 16.90428648288108 3.2334072496733595
28 9 1 4.267766871393197 17.248234088137842 2.6711333369206485
29 9 0 5.328046608684937 17.146528610948852 2.38763470275304
30 10 0 18.134718697748923 11.768860215684152 15.209060108936459
31 10 1 17.68840151477572 12.289042847220712 15.948430103994548
32 10 0 16.874286343988203 12.129254759701896 16.50601034904091
33 11 0 4.863966397930748 13.590889580305994 18.93784158007178
34 11 1 5.216465493813658 14.51751683138666 18.93300772465897
35 11 0 6.086112329544077 14.899617876593929 18.635973543895954
36 12 0 3.2443857618754004 4.240532749820332 11.73169499699788
37 12 1 3.106304177907667 3.6505909212840426 12.575124174852862
38 12 0 3.317226037215874 3.58970431190694 13.588395800405035
39 13 0 7.7295554157893305 19.601744355960278 12.908723275252372
40 13 1 7.283927495036055 19.074360020864283 13.611418891798824
41 13 0 7.313611719926418 18.09782247998238 13.720484105174865
42 14 0 17.61193371312787 16.664862151795646 12.80147335955891
43 14 1 17.826716920633096 17.120341981691737 11.976022751243352
44 14 0 17.237397460285454 16.96211641061411 11.226168224483509
45 15 0 12.8870822251024 9.354077248824197 16.927320162819264
46 15 1 12.7263389807258 8.78740020957003 17.68754859404089
47 15 0 11.779121857040565 8.705883615054173 17.825994656793792
48 16 0 16.142587664186927 13.948057639934754 18.41662036572241
49 16 1 16.96890930638709 13.461784427619707 18.29515723030858
50 16 0 16.870605709873914 12.689568410834802 17.729651003438715
51 17 0 4.895248878689747 5.26835616154377 5.281434234670023
52 17 1 4.260133532040424 5.866665472024088 4.772270456946521
53 17 0 4.440574594603709 6.700593133847869 4.2714564628911695
54 18 0 17.009678437474086 2.105388656377622 8.515189642475667
55 18 1 16.853265568501605 1.312665669974423 7.991320983017278
56 18 0 15.926388115609605 1.0535632070897643 8.009324593681992
57 19 0 18.26322235222095 3.64656185000161 8.051916557094778
58 19 1 18.82744754160259 3.7564698106267045 8.827863274699009
59 19 0 18.434555940086998 4.276308459252455 9.546450337294859
60 20 0 5.688896598492848 16.67437051201802 11.578902834315105
61 20 1 5.311643660679699 17.435919462903946 12.053764335977496
62 20 0 5.731091384585123 17.548047292256946 12.90829943660501
63 21 0 13.75068735781264 6.119448390735609 11.392572727543108
64 21 1 13.63293853799069 7.07041124077225 11.472787692321997
65 21 0 13.300610340608785 7.264678902365862 12.353265555403588
66 22 0 13.895614420986435 1.6509553438408457 4.1843633670546225
67 22 1 14.369054937683861 0.8889348543456635 4.538526959998863
68 22 0 13.841107397606253 0.3744605903912859 5.167972614934599
69 23 0 18.043383553177406 5.314986565175467 13.994193177116241
70 23 1 18.329453631134594 4.442074069599558 13.738023808825984
71 23 0 17.654587105118814 3.8077054897100586 13.561623714073626
72 24 0 0.9906589521262119 18.279485114283965 11.878315322559748
73 24 1 1.1275373152293378 18.393319457451614 10.932943958303635
74 24 0 1.9729318355712768 18.010784976171713 10.676627167988437
75 25 0 10.138156503095683 13.610607265664427 11.910844911269555
76 25 1 10.685244330948343 14.265966306460571 12.400764679172772
77 25 0 10.433274148825307 15.168865044193831 12.703084395402144
78 26 0 11.655719421141379 4.6270444004620845 16.10810671519747
79 26 1 12.540201146325087 4.114377761533015 16.224926524326325
80 26 0 12.62582669025369 4.371544868315958 17.138604545518632
81 27 0 6.392707248803061 9.797352264315403 15.708184604776271
82 27 1 6.571288274958232 9.514581392351703 16.608922556685457
83 27 0 7.326136594207647 8.920503783167385 16.600176708249535
84 28 0 8.96974557756282 7.9435966358861405 16.507427813326107
85 28 1 9.714441872140249 7.374974418989392 16.744116608172874
86 28 0 10.219476690333558 7.078951091456154 15.978939303258736
87 29 0 16.23088160140407 2.652866508455129 4.1834808852287315
88 29 1 16.475382220506148 2.301955885032535 5.085274450884246
89 29 0 16.28535321890867 2.5528668077208714 6.100680759472005
90 30 0 18.296151660241595 7.048809378797078 15.587835624400816
91 30 1 17.630305097155794 6.598958618163032 16.163013407998974
92 30 0 16.649681839273576 6.737619717714839 16.15212310157171
93 31 0 17.101886946182102 3.083048408647753 14.985617202345704
94 31 1 16.781289524392918 4.075584615204075 15.213885410867691
95 31 0 15.935153190155043 4.778684610549518 15.176347213270512
96 32 0 14.18583705667108 10.371815946756662 6.09409002533308
97 32 1 15.04517979543666 10.651907478467686 5.659897535817537
98 32 0 15.341527683489241 11.444929335215724 5.119366547468293
