ITEM: TIMESTEP
135
ITEM: NUMBER OF ATOMS
99
ITEM: BOX BOUNDS pp pp pp
0 20.0
0 20.0
0 20.0
ITEM: ATOMS id mol type x y z
0 0 0 5.099413211791736 10.097330253945223 14.228721292450462
1 0 1 4.514551098038995 9.420565635013569 13.853671341030037
2 0 0 4.853725773843493 8.902256421072083 13.106347631217512
3 1 0 10.305766730728974 17.325929041135783 3.7287308751569768
4 1 1 10.342216978057968 16.543402003591112 3.1735119457101235
5 1 0 9.946986665847533 15.802363671579318 3.7068086067048576
6 2 0 6.663374516765259 2.924101364664974 15.29036084784931
7 2 1 6.071145180275002 2.324699110065008 14.821357609995284
8 2 0 5.734381234915305 2.7274813279258425 14.0129212321541
9 3 0 3.2554079008666705 16.26262556437373 9.160455591847045
10 3 1 3.6141972222571073 16.147049864640675 8.272724152329731
11 3 0 4.57603179852603 16.057221154304777 8.25231453778886
12 4 0 7.76553721704817 6.811956985486619 3.782219435253383
13 4 1 8.213174444776506 6.442133252344114 2.951758267733907
14 4 0 9.078105224873433 6.000026149849024 2.6849304503297535
15 5 0 6.794833579934798 15.744127814772135 17.042258385723045
16 5 1 6.505615679821857 16.655248348785815 16.8474789433645
17 5 0 6.370303756045597 16.9803486888708 15.939789482278695
18 6 0 2.390074210997978 12.717891356855507 15.083804932195317
19 6 1 1.8313385922675698 12.862348355158941 15.855945400720381
20 6 0 1.4868423595296911 12.041476128696136 16.22536067530171
21 7 0 12.410881579926079 4.844572879739692 13.42297656121416
22 7 1 11.502540556964126 4.481558097882917 13.298177329257415
23 7 0 10.823957681266105 4.7250066938250255 13.94232209814192
24 8 0 2.1482529198639875 5.386851397443707 4.441557173127021
25 8 1 2.230983941089292 5.727355576035446 3.5435937170745
26 8 0 2.6406115658079297 5.133914179653518 2.8996375260502374
27 9 0 3.3609321706846655 16.942307817922078 3.212323827461992
28 9 1 4.269683555498912 17.243375879849914 2.674123405482111
29 9 0 5.319961620098707 17.186466177943167 2.360027041115068
30 10 0 18.139756647631728 11.78539742288227 15.214726335919632
31 10 1 17.68520387783117 12.292707833810164 15.958141246158975
32 10 0 16.867122249481138 12.13748079703302 16.515929187352704
33 11 0 4.85958124328399 13.59714693438728 18.94093519710113
34 11 1 5.217115830029689 14.51726662049586 18.932422497185758
35 11 0 6.084935808858931 14.905119262695004 18.638015330365704
36 12 0 3.2301134080282483 4.220655515990537 11.720687369362278
37 12 1 3.107875561280401 3.6532952997633976 12.575919020395412
38 12 0 3.3028000285140564 3.5670032785941843 13.584308902730381
39 13 0 7.73153186223914 19.604556361583473 12.907284117729041
40 13 1 7.2818904098543165 19.07298922191945 13.609699307877626
41 13 0 7.314473451933236 18.09413662503619 13.722273758029628
42 14 0 17.610903557665118 16.66418870843572 12.801289087366202
43 14 1 17.82684466666672 17.120465862579575 11.975978254660426
44 14 0 17.236610046445666 16.961370460988725 11.226648778750635
45 15 0 12.887281818100638 9.35498929127029 16.926277364121713
46 15 1 12.7263046761755 8.787449205130088 17.687713749243503
47 15 0 11.77859816076643 8.706269589696666 17.826373276744114
48 16 0 16.145080653533263 13.943110656592692 18.414123247554414
49 16 1 16.97224838341427 13.457320194255699 18.28530001867178
50 16 0 16.8689321383638 12.683983919835985 17.719562810768227
51 17 0 4.852791394825726 5.267715329885304 5.281130538204092
52 17 1 4.22841648722505 5.86391904614673 4.750593433526701
53 17 0 4.413049863050664 6.705921790810071 4.269679427024663
54 18 0 17.009595553434345 2.1062633494800216 8.516302337943767
55 18 1 16.853508543727948 1.3136904396615248 7.989689932023716
56 18 0 15.926912227744886 1.0533524429836023 8.009677143366968
57 19 0 18.26000857567313 3.6472381922352626 8.048417783105172
58 19 1 18.82768657515055 3.755671519076542 8.827529080255308
59 19 0 18.430027620744067 4.281468527834645 9.552433124548406
60 20 0 5.6969732991371105 16.659868668297527 11.571479957835592
61 20 1 5.313085544802043 17.43855885613265 12.055652942865134
62 20 0 5.7337147455538835 17.547320999879897 12.911540387718176
63 21 0 13.751088328190473 6.117792390079341 11.392152300986218
64 21 1 13.633006650515302 7.070720312008169 11.472516163240579
65 21 0 13.300373955913535 7.2651706088183365 12.354049683668816
66 22 0 13.899922940753891 1.651779879039175 4.180001094335502
67 22 1 14.384010296413132 0.8994112964259384 4.543137617694325
68 22 0 13.850543815615975 0.37427247997965096 5.162021157127563
69 23 0 18.005779827853868 5.3206761413558405 13.99838989133589
70 23 1 18.25593568602556 4.422934518298054 13.813914191455565
71 23 0 17.60318537548946 3.8099307198830377 13.57379704190414
72 24 0 0.9903738258439162 18.279215152548222 11.880398380386254
73 24 1 1.1271016243517402 18.393560594943366 10.93291889486202
74 24 0 1.9752190461118053 18.0097595336508 10.67605893813108
75 25 0 10.140853017274477 13.609411044023506 11.91131344923788
76 25 1 10.68496617594145 14.26602348248081 12.400642047247592
77 25 0 10.435915797706107 15.168826546424517 12.70403698090672
78 26 0 11.57548698359773 4.671234019795692 16.09153052875353
79 26 1 12.54428463536597 4.111436021329072 16.223955393156416
80 26 0 12.631405677289559 4.372061131719151 17.150723358627427
81 27 0 6.392716351893136 9.798049846563966 15.707437341867504
82 27 1 6.57104499562524 9.514647571656294 16.608940924602095
83 27 0 7.3262606120157185 8.920317109737192 16.60048203213816
84 28 0 8.965568742510015 7.946815671048238 16.505314422559415
85 28 1 9.7147562232975 7.374841737119103 16.744501771091862
86 28 0 10.219832272563371 7.078703737341973 15.977279825827923
87 29 0 16.24745286972497 2.648182364763365 4.188339686753112
88 29 1 16.458511626944862 2.290378308323489 5.080023713465834
89 29 0 16.286170449204665 2.5631491770767427 6.140856873231014
90 30 0 18.301546895724446 7.050186675266846 15.58914406172509
91 30 1 17.628555291740685 6.592056676555104 16.16036774305357
92 30 0 16.637520233864258 6.739313183182735 16.15551026783362
93 31 0 17.12077581301545 3.0687776435396485 15.039655948035929
94 31 1 16.860239902190923 4.101859124116029 15.132140229056205
95 31 0 15.960780824283264 4.7764630703905855 15.239929511342458
96 32 0 14.192169094274906 10.363872012919327 6.096505712291828
97 32 1 15.044234618982152 10.652706777643491 5.659745149368198
98 32 0 15.350492061510073 11.440326534635144 5.119060367685016
