ITEM: TIMESTEP
138
ITEM: NUMBER OF ATOMS
99
ITEM: BOX BOUNDS pp pp pp
0 20.0
0 20.0
0 20.0
ITEM: ATOMS id mol type x y z
0 0 0 5.10588160067531 10.093079076209419 14.220110525081257
1 0 1 4.513609953825667 9.42036771625392 13.85404482462721
2 0 0 4.862509146521603 8.909327850361175 13.108631784004686
3 1 0 10.30755087293195 17.328993810715687 3.726164866597075
4 1 1 10.341956975594442 16.54314476730732 3.1740244041031764
5 1 0 9.949559741723963 15.803444972185023 3.7011200114736384
6 2 0 6.662633957590231 2.9254917003437093 15.288211812022448
7 2 1 6.071140561637154 2.324437189795485 14.821483109439798
8 2 0 5.736063805801579 2.7293638565172307 14.013964184621802
9 3 0 3.2613715057927855 16.26214025117129 9.161772826376758
10 3 1 3.613900306963416 16.14697260435106 8.272159200265166
11 3 0 4.574963638608272 16.057862623930372 8.258314126456277
12 4 0 7.800685065167557 6.797315746736437 3.7875836436151578
13 4 1 8.211168803403876 6.442532557494254 2.949061123801294
14 4 0 9.07621391113244 6.008451295759431 2.7221641814540067
15 5 0 6.794233316409444 15.744434444379074 17.023500858191788
16 5 1 6.5052159298963295 16.65613477883125 16.849083771421764
17 5 0 6.375683337916518 16.962659714573306 15.937241637246313
18 6 0 2.388875591423933 12.713323309095504 15.084845842883384
19 6 1 1.8311703681006342 12.862761359737451 15.856107100590782
20 6 0 1.4893813624635341 12.03965329554269 16.221688001232003
21 7 0 12.402584887336976 4.848613124854181 13.432191780032394
22 7 1 11.502607631110706 4.480733564630245 13.29780998107398
23 7 0 10.833243993349415 4.731505485990083 13.94724710236625
24 8 0 2.1543482769322266 5.374212371020562 4.441887164113949
25 8 1 2.251537683862255 5.730067504226348 3.555647866650795
26 8 0 2.6410259496352193 5.125864532301868 2.9098237636436313
27 9 0 3.4160393380772844 16.923203706293606 3.208102517716316
28 9 1 4.268439258437047 17.2464771352949 2.672167822379614
29 9 0 5.284600524856147 17.156039347356394 2.395203905643308
30 10 0 18.111618425003527 11.774155353462891 15.228956999469155
31 10 1 17.685352431793856 12.297149471277692 15.963112023586762
32 10 0 16.87010689481192 12.113527993732067 16.49546405978619
33 11 0 4.8885828412859365 13.595804997697797 18.929097461814862
34 11 1 5.215401218410158 14.519496387469554 18.93333942137256
35 11 0 6.0852630178612435 14.873836846215308 18.633521039065368
36 12 0 3.247765790798033 4.23433787708615 11.76054530428355
37 12 1 3.1056926147573107 3.650215249515339 12.574813860057166
38 12 0 3.3180827296570565 3.6031431130550633 13.561055068192456
39 13 0 7.737043806996993 19.581030318792443 12.90402892286234
40 13 1 7.279913424794894 19.073561954201875 13.61042001421815
41 13 0 7.328483690271209 18.099211119511722 13.703034398404553
42 14 0 17.603216819160725 16.66080218897892 12.795173396989943
43 14 1 17.827615459425637 17.121061726475546 11.975900563661325
44 14 0 17.232052716908456 16.95544264504335 11.233845095994432
45 15 0 12.887636259212798 9.354806427320412 16.926579828600666
46 15 1 12.726258675774632 8.787517380137576 17.687714672492188
47 15 0 11.778637814369121 8.706183985658082 17.826828975917532
48 16 0 16.145299675792494 13.937528450555673 18.41038859558163
49 16 1 16.97396454417689 13.455469058730754 18.281214412594796
50 16 0 16.864406377538327 12.683874588415676 17.715627729958808
51 17 0 4.850470928656633 5.2935070933192625 5.267129907911994
52 17 1 4.206445415318535 5.861314070306841 4.738086139355745
53 17 0 4.430268063437948 6.6989108031195626 4.280804270782502
54 18 0 17.006572193452484 2.1057094364378997 8.516754969984474
55 18 1 16.853799781591647 1.3139979309383187 7.988953688460817
56 18 0 15.926939411197717 1.0556398265649272 8.011525262899703
57 19 0 18.255750749939057 3.6516849714176023 8.052978962653258
58 19 1 18.82814507668255 3.755278899839328 8.827587989411041
59 19 0 18.425389716188466 4.280568033952357 9.545850225508019
60 20 0 5.6961608210628585 16.66378563123659 11.575805493780154
61 20 1 5.313873041053777 17.439094632349157 12.055987411750069
62 20 0 5.735605218135638 17.54576309784896 12.912375995007764
63 21 0 13.751523001119807 6.118288175595035 11.390909408818052
64 21 1 13.63300837888626 7.070699153731552 11.472519460855626
65 21 0 13.300415397301364 7.266487983955444 12.353686035311796
66 22 0 13.898192149053722 1.6497252718475452 4.181671784479871
67 22 1 14.391510048314892 0.9042422059445876 4.545182887824294
68 22 0 13.851527520328618 0.37867866333196726 5.157678935258697
69 23 0 17.831559886900585 5.24110166798438 14.141908437924453
70 23 1 14.814563974849921 3.6555319202615775 17.042522644884407
71 23 0 17.43801090160865 3.808061173630834 13.746668998393266
72 24 0 0.9908352246958178 18.2790414156754 11.88005689289076
73 24 1 1.1269901885180347 18.393621783246317 10.932924436572453
74 24 0 1.9745987702291186 18.009956165688443 10.676747778426378
75 25 0 10.125279917224413 13.630524526452515 11.91479420406412
76 25 1 10.68729248246554 14.265315246576026 12.401176056931144
77 25 0 10.414616583534718 15.158918738217148 12.691800158180374
78 26 0 11.597757671707592 4.652313526998338 16.077102951718928
79 26 1 12.542387364619024 4.113118178455105 16.22455507269312
80 26 0 12.65229115964688 4.3598855970900114 17.153405820448018
81 27 0 6.391919135776787 9.798843358857827 15.707848065999821
82 27 1 6.571008981158866 9.51464471419502 16.608833506414275
83 27 0 7.326161347054751 8.920183077666708 16.601726712277873
84 28 0 8.96837915585136 7.945143598215581 16.501126946062406
85 28 1 9.714829352882738 7.374796395266728 16.7449639969026
86 28 0 10.216318624634459 7.081440264689431 15.975007191194747
87 29 0 16.235168916399726 2.674862578500348 4.212816220536194
88 29 1 16.45233830560653 2.2823939871142875 5.079833916961042
89 29 0 16.278227453367116 2.580176152054434 6.098812868842937
90 30 0 18.279078278764526 7.05796782011598 15.585527953336687
91 30 1 17.62843785593779 6.5880287913865985 16.16053005608423
92 30 0 16.649317256385622 6.753546968565351 16.14014116993287
93 31 0 16.195686031839823 3.1899907562421563 14.879878002464139
94 31 1 0.4266973165662841 4.8794341397826315 11.902166960425069
95 31 0 15.223493458231173 4.61867291570135 15.11684565640443
96 32 0 14.188385681838195 10.394817089708766 6.080360736038058
97 32 1 15.046587037086372 10.650616548374114 5.660156364200229
98 32 0 15.316705002550012 11.442919304555573 5.128497843172622
