ITEM: TIMESTEP
139
ITEM: NUMBER OF ATOMS
99
ITEM: BOX BOUNDS pp pp pp
0 20.0
0 20.0
0 20.0
ITEM: ATOMS id mol type x y z
0 0 0 5.106825393197439 10.092352986618504 14.218770308960957
1 0 1 4.51346982151297 9.420340959008813 13.854100306275416
2 0 0 4.863824224643116 8.91046755504149 13.109066545400381
3 1 0 10.307846901816799 17.329367199223515 3.7256578709673382
4 1 1 10.341890662755684 16.543068032755098 3.1741436690488722
5 1 0 9.95033649456311 15.804301130887696 3.6997155080147826
6 2 0 6.662478955108215 2.925660952487873 15.287851228906714
7 2 1 6.071137149481327 2.324406557366882 14.821496382569467
8 2 0 5.736329271233927 2.729628123836819 14.014167839785443
9 3 0 3.262284650479797 16.26207035369186 9.161958601605798
10 3 1 3.613858180174875 16.146966408075336 8.272084116387807
11 3 0 4.574733240687097 16.057968032483934 8.2592283226263
12 4 0 7.8068696530484445 6.794822687227272 3.7889474679945363
13 4 1 8.210780325498083 6.442607208275096 2.9485587259053205
14 4 0 9.076312714803503 6.0097599314603185 2.7288078702642897
15 5 0 6.794098175506976 15.7445453463268 17.020531505129252
16 5 1 6.505165340152402 16.656290738036056 16.849312897438505
17 5 0 6.37653156856602 16.959861394431652 15.936805981855992
18 6 0 2.388685203123298 12.712635240237098 15.085019918832714
19 6 1 1.8311527138551635 12.862821282380425 15.85613127403587
20 6 0 1.4897744664308745 12.039396367066809 16.22112493233679
21 7 0 12.400871929154931 4.8490290901232145 13.433523400321567
22 7 1 11.502630349259535 4.480637136451226 13.297712011222387
23 7 0 10.834723490426354 4.732474394250556 13.947972432912009
24 8 0 2.1550300033637875 5.372822870202193 4.441498359672062
25 8 1 2.2540390350209587 5.730381560359499 3.5571271950199317
26 8 0 2.6410053852162 5.124959743485443 2.9111260548689346
27 9 0 3.425829645939232 16.917772259688928 3.208902166935393
28 9 1 4.268122913049713 17.247270176844545 2.671671093064063
29 9 0 5.279862040208055 17.148787436810064 2.40233203205813
30 10 0 18.10684689483076 11.771591534499596 15.23097474841047
31 10 1 17.685502625077927 12.297739811919271 15.96355202237818
32 10 0 16.870819078324867 12.109265432078079 16.491745414217842
33 11 0 4.893451932518813 13.595299484603514 18.927054060662428
34 11 1 5.215094809984117 14.519869398021202 18.933512498765964
35 11 0 6.085409258492829 14.868557614281412 18.632695298098806
36 12 0 3.251418265827038 4.237705183216882 11.767441140765316
37 12 1 3.105183308649502 3.6495989350738056 12.574574041887757
38 12 0 3.3213544436286417 3.6101883225967293 13.557650839946186
39 13 0 7.737856137522762 19.577143731491944 12.903563837493554
40 13 1 7.2796752612814295 19.073707239926 13.610602950614924
41 13 0 7.33070269497659 18.100173584668013 13.69987772269213
42 14 0 17.602050854010827 16.66030017353289 12.794212381851006
43 14 1 17.827731208487016 17.121150226156164 11.975890139504353
44 14 0 17.231371960102223 16.954541421691044 11.234963323213215
45 15 0 12.887683135891702 9.354738001480213 16.926673741656952
46 15 1 12.726252474269867 8.787527094529791 17.687708058795664
47 15 0 11.77866847925248 8.706156128193866 17.826885572992875
48 16 0 16.14525240561398 13.936828044923741 18.40989173464711
49 16 1 16.974112459144706 13.455338463859647 18.280928058416325
50 16 0 16.86376597131984 12.684075402864133 17.71538141268392
51 17 0 4.851515694192096 5.297695172242601 5.264827695880124
52 17 1 4.20360181422467 5.860964158836674 4.736579022382014
53 17 0 4.433965618720835 6.6975796615764756 4.282655524160213
54 18 0 17.006101109826385 2.1055827695928664 8.516779363793836
55 18 1 16.85383598899374 1.3140074607225654 7.988901318381178
56 18 0 15.926926553404236 1.0560065156714347 8.011801327559859
57 19 0 18.255225282237525 3.65236383390663 8.053862069197542
58 19 1 18.828205051337537 3.755249471606093 8.827612619273747
59 19 0 18.424855589077154 4.28019900559067 9.544545204066624
60 20 0 5.695681432393046 16.66504024910886 11.576818518473523
61 20 1 5.313946207760678 17.43907347018403 12.055967230059926
62 20 0 5.735785658432194 17.545544143778507 12.912352924272346
63 21 0 13.751575044985238 6.11844067886269 11.390731445714884
64 21 1 13.633006942183448 7.070682822718358 11.472531296447464
65 21 0 13.300434145594306 7.266674357898444 12.353591327924333
66 22 0 13.897794408812345 1.6493664164661477 4.182087044910475
67 22 1 14.392185958623354 0.9046506977718276 4.545350217736403
68 22 0 13.851379162164664 0.37938418642882216 5.157198760560335
69 23 0 17.689814801447323 5.167538229523893 14.278735253564774
70 23 1 14.829913952043068 3.660850830251895 17.02410558273962
71 23 0 17.316507078589385 3.799865569032413 13.898568833117098
72 24 0 0.9909196580194649 18.279026785464424 11.879908822508025
73 24 1 1.1269903276191169 18.393621541270054 10.93292695077034
74 24 0 1.9743975660668125 18.01003388179184 10.676881427041618
75 25 0 10.122664659207022 13.63395729886034 11.915329582221636
76 25 1 10.68767789481834 14.265198934321374 12.401266829702275
77 25 0 10.41108615489613 15.15733935142261 12.689799851199522
78 26 0 11.604740640935534 4.6474011351562945 16.075486252838484
79 26 1 12.542833405277289 4.113330414433638 16.2250251776292
80 26 0 12.655404397620128 4.357870313542566 17.153193334180678
81 27 0 6.391794804291514 9.798939600702353 15.707945691441276
82 27 1 6.571012765832186 9.514641738769242 16.608815696538933
83 27 0 7.32613830166085 8.920171352263393 16.601910150393493
84 28 0 8.969006257656536 7.944737905202189 16.50055973708415
85 28 1 9.714827539046475 7.3747954902591735 16.745020262755187
86 28 0 10.215743951547445 7.081884826264011 15.974728788590719
87 29 0 16.232540949491938 2.679513835502024 4.2166206581884165
88 29 1 16.45194779603856 2.281499783789277 5.079982558941603
89 29 0 16.27685827011507 2.58269892093208 6.090564954082048
90 30 0 18.275243677090703 7.059169302029005 15.58488685332309
91 30 1 17.62853417263449 6.587817914126241 16.160733930354283
92 30 0 16.65171422727067 6.755769308470766 16.137527212969353
93 31 0 15.3084038854669 3.2850449866390203 14.712312454260047
94 31 1 0.5340489013880038 4.872548712302446 11.923899262729545
95 31 0 14.394530322834594 4.633278250365054 14.936761247653099
96 32 0 14.187426779594409 10.400187524094399 6.077656328169052
97 32 1 15.04701441796677 10.65023781949634 5.6602309233218335
98 32 0 15.310830029627489 11.44361379962456 5.130002109770523
