ITEM: TIMESTEP
140
ITEM: NUMBER OF ATOMS
99
ITEM: BOX BOUNDS pp pp pp
0 20.0
0 20.0
0 20.0
ITEM: ATOMS id mol type x y z
0 0 0 5.1077729245867465 10.091627976808025 14.217428328475059
1 0 1 4.513329255858442 9.420314125525055 13.854156021520533
2 0 0 4.865143394484316 8.91160733048824 13.109498818012625
3 1 0 10.308142882152682 17.329740354314797 3.725150874265355
4 1 1 10.34182564325455 16.542993762612113 3.1742612671543937
5 1 0 9.95109304057297 15.805118159984985 3.6983375518759143
6 2 0 6.662325758593347 2.925832478191075 15.287491736018563
7 2 1 6.071133797634903 2.3243755466413827 14.82150984883142
8 2 0 5.736594464404602 2.7298938106693416 14.014369660745315
9 3 0 3.263198891101002 16.262000256885436 9.162144799337705
10 3 1 3.6138158227616204 16.146960087108003 8.272008694592841
11 3 0 4.574505761401493 16.05807324884506 8.260143691720485
12 4 0 7.813084955903281 6.792319022644559 3.79032665896844
13 4 1 8.210390169564416 6.44268205338807 2.948053077635903
14 4 0 9.076410133802128 6.011076420807832 2.7354870950237076
15 5 0 6.793963597754149 15.744655155285047 17.01755597672332
16 5 1 6.505114350393145 16.656446714294372 16.849542877469823
17 5 0 6.377381913267018 16.95705662048776 15.936372731795128
18 6 0 2.3884949910106763 12.711946247604521 15.085193551439506
19 6 1 1.8311348497477518 12.862881353054043 15.85615549572743
20 6 0 1.4901677462206406 12.039138527652394 16.22056145879644
21 7 0 12.39917979612345 4.849458306587613 13.434864101657302
22 7 1 11.50265109332284 4.4805393992800875 13.29761413820626
23 7 0 10.836208768717086 4.733445690918797 13.948697857869204
24 8 0 2.1557156405898694 5.371383360575408 4.441153170516249
25 8 1 2.256728417357447 5.730712117402444 3.55871638388657
26 8 0 2.6409789339373044 5.124036300610541 2.9124490960092686
27 9 0 3.4356640621611954 16.91223358066466 3.209768371178216
28 9 1 4.267801274372671 17.24807664640622 2.6711659062444015
29 9 0 5.275163779641987 17.141428110018182 2.409528182132647
30 10 0 18.10205441890901 11.769020396180668 15.233003008962429
31 10 1 17.685650489447706 12.298338934270054 15.96400600266069
32 10 0 16.87151833097473 12.104979202548845 16.488018168962537
33 11 0 4.898341361125102 13.594805169321367 18.925004352289374
34 11 1 5.214787224410832 14.520243339067063 18.933685937121123
35 11 0 6.08555834980252 14.863259261343098 18.63186620621166
36 12 0 3.2551037284906754 4.2411049768088995 11.774374546169295
37 12 1 3.104616804849722 3.6490045987504147 12.574319259421161
38 12 0 3.32465270205853 3.6172820286966365 13.554227079485594
39 13 0 7.738677387156318 19.573248026602418 12.903089297156962
40 13 1 7.279434107587634 19.073851961799143 13.610785507407735
41 13 0 7.332931438319755 18.10113153951521 13.69671035141069
42 14 0 17.600883058941655 16.659797177803764 12.793250414780076
43 14 1 17.827847143283506 17.121238897309087 11.975879649130196
44 14 0 17.23069025987009 16.953638914933894 11.2360832001984
45 15 0 12.88773046903846 9.354671608248758 16.926765093153016
46 15 1 12.726246239812683 8.787536801852834 17.687701700098625
47 15 0 11.778698386551792 8.706128629785333 17.82694248566138
48 16 0 16.14520732099766 13.936121423044144 18.409391213052128
49 16 1 16.9742648472083 13.45520193134907 18.280628772082558
50 16 0 16.86312380735007 12.684269031312331 17.715120592457154
51 17 0 4.852444410166091 5.3019004290330445 5.262487322056747
52 17 1 4.200581056753661 5.860601471383063 4.734960705699784
53 17 0 4.437604520674267 6.696240019098097 4.284502558479022
54 18 0 17.005629992254818 2.105458393705898 8.516805786623262
55 18 1 16.85387237772057 1.3140177530492319 7.988847479211829
56 18 0 15.926914335667282 1.0563732796096794 8.012077833853164
57 19 0 18.254693059244573 3.653044526653728 8.054740934841279
58 19 1 18.82826596120093 3.755218812472592 8.827636645120315
59 19 0 18.424309456727713 4.279841817331416 9.54325318338852
60 20 0 5.695221540596397 16.666258859544488 11.57781216333426
61 20 1 5.314020090073118 17.439056344630217 12.05594987936942
62 20 0 5.73596779874179 17.545322911444657 12.91232915598263
63 21 0 13.751627768948635 6.118589130035733 11.390552938310343
64 21 1 13.633005617261716 7.070666932423669 11.472542816198379
65 21 0 13.300452334011892 7.266861322261573 12.353498285117496
66 22 0 13.897406412035403 1.6490097115273914 4.18249571214205
67 22 1 14.392889842175236 0.9050787173080078 4.545526177592902
68 22 0 13.851249302857116 0.38009072079060613 5.156709869822787
69 23 0 17.552604329521355 5.096338470305703 14.4111015562123
70 23 1 14.8447415031482 3.6660025913451246 17.0062781834535
71 23 0 17.198959385462807 3.7919758317960817 14.045456850998224
72 24 0 0.9910037658295766 18.279011529047327 11.879764780497988
73 24 1 1.126989879156781 18.393621633471337 10.932929352476746
74 24 0 1.9742017883642042 18.010109097565206 10.677013814488681
75 25 0 10.120044498868419 13.63740271474343 11.91586867799583
76 25 1 10.688064264985208 14.265082232199289 12.401357747573979
77 25 0 10.407546084322341 15.155753282586321 12.687793033950419
78 26 0 11.611572153482259 4.642565175798166 16.07380679943302
79 26 1 12.543298624444892 4.113543217631768 16.225481709995602
80 26 0 12.658550971036783 4.355845167759702 17.153010982844037
81 27 0 6.391670284529324 9.799036775192995 15.708041614576882
82 27 1 6.571016334952836 9.514638819513547 16.608797972341666
83 27 0 7.32611567198056 8.920159227706463 16.60209383390502
84 28 0 8.969623704041744 7.944339750011777 16.499987329649038
85 28 1 9.714826387385695 7.374794158885565 16.745077148528484
86 28 0 10.21516915471395 7.082329597670912 15.974447833669897
87 29 0 16.229916010666752 2.6841827742821267 4.220487685166476
88 29 1 16.451530444765375 2.2805781892556554 5.080114055054057
89 29 0 16.27544070003849 2.5853174226741564 6.082427458698545
90 30 0 18.271404358351628 7.060387749377359 15.584229235844749
91 30 1 17.628632333277455 6.587604578248589 16.160939344544
92 30 0 16.6540890243777 6.75801005209177 16.134898061400936
93 31 0 14.450103491020478 3.377242617044632 14.550296170845863
94 31 1 0.6379088645053363 4.865858489190233 11.94494368942315
95 31 0 13.592986965420318 4.647112178896144 14.762637402619694
96 32 0 14.186466119753325 10.405582977424142 6.074938446863303
97 32 1 15.047443585691932 10.649857186471214 5.660305968157377
98 32 0 15.304928384594543 11.444313941463491 5.131511806353009
