ITEM: TIMESTEP
141
ITEM: NUMBER OF ATOMS
99
ITEM: BOX BOUNDS pp pp pp
0 20.0
0 20.0
0 20.0
ITEM: ATOMS id mol type x y z
0 0 0 5.108725404804258 10.090903171473308 14.216082867485902
1 0 1 4.513188081843722 9.420287181047426 13.854212041810502
2 0 0 4.866468334097062 8.912748602730549 13.10992911410764
3 1 0 10.308439170159627 17.330113779618195 3.724643300158838
4 1 1 10.341761851538621 16.542921884973627 3.174377323466223
5 1 0 9.95183012226168 15.805896713981122 3.696984704683652
6 2 0 6.662174200192957 2.9260065121450793 15.287132904353873
7 2 1 6.071130512329129 2.3243441041350628 14.821523537501172
8 2 0 5.736859729700374 2.7301612530222354 14.014569885126248
9 3 0 3.264115383023177 16.26192986038816 9.162331646402128
10 3 1 3.6137731807118647 16.14695362284362 8.271932821748784
11 3 0 4.574280946639281 16.058178399610778 8.26106138404316
12 4 0 7.819338934354254 6.7898013594518565 3.7917220478114584
13 4 1 8.209997902413027 6.4427571810264945 2.947543601719168
14 4 0 9.076505418844798 6.012402786743276 2.7422101382753246
15 5 0 6.7938294436086855 15.74476402273615 17.014570531992497
16 5 1 6.505062876020658 16.656602867004697 16.849774042892903
17 5 0 6.378235444291996 16.95424186367785 15.935941450439728
18 6 0 2.388304711726586 12.711255458356481 15.085366956066341
19 6 1 1.831116738903226 12.862941650987514 15.85617979606084
20 6 0 1.4905616936502346 12.03887944138752 16.21999686942922
21 7 0 12.397505814951817 4.849901738052939 13.436214238687624
22 7 1 11.502673488826154 4.480440763493134 13.297519469123351
23 7 0 10.837701602105335 4.734420656208864 13.949424278467756
24 8 0 2.1564060236780813 5.369887368689611 4.440854924042948
25 8 1 2.2596349386253864 5.7310616083414505 3.560432617232838
26 8 0 2.640945590020549 5.123091817515952 2.91379684331578
27 9 0 3.445559229025871 16.90658169196317 3.2107000124498946
28 9 1 4.267473957829998 17.248897504179016 2.67065165751759
29 9 0 5.270495213043459 17.133952003719823 2.4168030599340584
30 10 0 18.09723484936572 11.766440056018695 15.235045371753127
31 10 1 17.685795847104814 12.298948058462157 15.964475640498534
32 10 0 16.87220549938736 12.100664297222094 16.484277875400515
33 11 0 4.903257244059005 13.594321897091225 18.922945855207256
34 11 1 5.214478118600283 14.52061868695895 18.93385991847495
35 11 0 6.085710156377527 14.857935112105457 18.631032892654858
36 12 0 3.2588272821448836 4.244540223297453 11.78135419577856
37 12 1 3.10395908789238 3.6484503389715996 12.574040686377845
38 12 0 3.327981330499777 3.6244313549247207 13.55077551649799
39 13 0 7.739508567522941 19.56933826555372 12.902604807820214
40 13 1 7.279189511935726 19.073996189059812 13.610967775033409
41 13 0 7.335172784823233 18.102086218292477 13.69352832945051
42 14 0 17.599711953287855 16.65929256342764 12.792286279857125
43 14 1 17.827963411775258 17.121327854688147 11.97586907736378
44 14 0 17.23000675199653 16.952733981525128 11.237206144612204
45 15 0 12.887778320770154 9.354607189820399 16.92685397579526
46 15 1 12.726239964609285 8.787546518306694 17.687695595139182
47 15 0 11.778727559495298 8.706101485040914 17.826999807760302
48 16 0 16.145164731074434 13.93540715316212 18.408886122869713
49 16 1 16.97442225626205 13.455058781972665 18.280315080891604
50 16 0 16.862479051207213 12.68445526848567 17.71484384202959
51 17 0 4.853242951912982 5.306128523739625 5.260101127571551
52 17 1 4.197355175625824 5.860223903197445 4.733214017879385
53 17 0 4.441180513034089 6.694889778793528 4.286345614532454
54 18 0 17.005158257855793 2.1053361667518247 8.51683431005884
55 18 1 16.85390900591984 1.3140288952302062 7.988791995314713
56 18 0 15.926902785708068 1.056740549152256 8.012355138935883
57 19 0 18.2541533507958 3.6537279469895454 8.055616571288065
58 19 1 18.828327873065973 3.7551868440099008 8.827660087782869
59 19 0 18.423750543912142 4.27949613612779 9.541972671186935
60 20 0 5.694780758943903 16.667442687135992 11.578787572262916
61 20 1 5.314094922910374 17.439043386954097 12.055935459819304
62 20 0 5.736152013002439 17.545099087899008 12.912304830332564
63 21 0 13.751681259686007 6.118733685635007 11.390373646296775
64 21 1 13.633004432063796 7.070651476960208 11.47255402671938
65 21 0 13.300469991154799 7.267049132011082 12.353406798559442
66 22 0 13.897028715645774 1.6486548533259593 4.182897739036829
67 22 1 14.393625089638192 0.9055285611307431 4.545711764708475
68 22 0 13.851139605281894 0.3807992817399505 5.156210847260634
69 23 0 17.419788676163 5.027458707895184 14.53916271861743
70 23 1 14.859046030242405 3.6709912242451312 16.989032209145478
71 23 0 17.085235659427944 3.784349604871723 14.187478574166992
72 24 0 0.9910876377354688 18.278995624587285 11.879624638066918
73 24 1 1.1269888197650586 18.393622072079264 10.932931647155884
74 24 0 1.974011232564737 18.010181891595156 10.67714509213999
75 25 0 10.117416315920767 13.640865182005403 11.916412266144164
76 25 1 10.6884520640577 14.264964997609978 12.401448918178694
77 25 0 10.403992043836178 15.154158373786705 12.685777156015597
78 26 0 11.6182599286631 4.637799632288764 16.07206058588656
79 26 1 12.54380247502771 4.113774377689516 16.225873421791537
80 26 0 12.661735642798511 4.353806890021958 17.152857385609213
81 27 0 6.391545433104415 9.799135037997825 15.70813593687899
82 27 1 6.571019676508602 9.514635958002396 16.608780311570357
83 27 0 7.326093423032748 8.920146689287991 16.602278008138658
84 28 0 8.970232171973558 7.943948705807507 16.499408967391762
85 28 1 9.714825900070522 7.374792408758026 16.7451347474209
86 28 0 10.214593517876331 7.082775127126698 15.97416394835643
87 29 0 16.227291666882525 2.6888747810837907 4.22442262499664
88 29 1 16.451082973899695 2.279626206726047 5.080228023255708
89 29 0 16.273973280972278 2.5880356858482756 6.074389113588435
90 30 0 18.267555509757976 7.061624658267689 15.583554306365892
91 30 1 17.628732512394667 6.587388509954429 16.161146522060506
92 30 0 16.656444639346 6.76027204870399 16.132250424692042
93 31 0 13.619891059166337 3.4666658712534457 14.39366012112258
94 31 1 0.7384325661364052 4.8593408421043405 11.965318462295405
95 31 0 12.817705984967613 4.659891284282823 14.595097814148705
96 32 0 14.18550313817551 10.411010184105361 6.072203494913136
97 32 1 15.047875037741564 10.649474210685577 5.660381583705353
98 32 0 15.298992690059562 11.445020035891135 5.133029139572191
