ITEM: TIMESTEP
144
ITEM: NUMBER OF ATOMS
99
ITEM: BOX BOUNDS pp pp pp
0 20.0
0 20.0
0 20.0
ITEM: ATOMS id mol type x y z
0 0 0 5.111077579179931 10.089130657876003 14.212775246729295
1 0 1 4.512840020416458 9.420220752722726 13.854350434711419
2 0 0 4.869735481063669 8.915547764224325 13.110973370977936
3 1 0 10.309165378669908 17.331029040331252 3.723399171804391
4 1 1 10.341611336692308 16.542756267539676 3.174654561563304
5 1 0 9.95354870663791 15.807634262736237 3.693783971425048
6 2 0 6.661810467917033 2.9264432697024243 15.2862577336409
7 2 1 6.071122660840567 2.3242652692379666 14.821557867521127
8 2 0 5.737509284077275 2.730823258093442 14.015052845471596
9 3 0 3.2663678188166667 16.261756214524233 9.162791602619675
10 3 1 3.6136676052034384 16.146937107842923 8.271745080224925
11 3 0 4.573742463672709 16.05843538883001 8.263317014931978
12 4 0 7.834809718286014 6.783578818756205 3.7952003082654593
13 4 1 8.209029297498796 6.442942195486953 2.946280844013703
14 4 0 9.076723751633814 6.015693254011926 2.7588491546675726
15 5 0 6.793503217378086 15.745026435992356 17.007222325527223
16 5 1 6.504934676213543 16.656985467733133 16.850345139176355
17 5 0 6.380337802981403 16.947311047475726 15.93489526911702
18 6 0 2.387838759357021 12.70955728481272 15.085790294956253
19 6 1 1.8310712510976055 12.863090207740768 15.856239597120043
20 6 0 1.491528560214462 12.038240002077952 16.218610464142472
21 7 0 12.388862016288243 4.874728127233607 13.418558934167216
22 7 1 13.423403331020154 5.065412692820246 5.1833125596572245
23 7 0 10.845310649706022 4.762737503976404 13.916273241179287
24 8 0 2.1581149368554153 5.365946783604488 4.440356982830758
25 8 1 2.2678976159274042 5.73201496101553 3.565306588675524
26 8 0 2.6408261109886655 5.1206814105102785 2.9172196829485877
27 9 0 3.4700618059229758 16.892273537956065 3.213244914797953
28 9 1 4.266648827963513 17.250967375719473 2.669354712897729
29 9 0 5.259166989900428 17.115157259908088 2.4349529795429135
30 10 0 18.085323937140036 11.760096165109143 15.240111254967438
31 10 1 17.686138030227312 12.300485193773543 15.965700576614168
32 10 0 16.873834376621538 12.089984982187255 16.475071202425628
33 11 0 4.915400151750728 13.593189749194732 18.917871463941143
34 11 1 5.213715487913876 14.521543310045267 18.934287737918655
35 11 0 6.08609128531413 14.84479568781882 18.628976714229335
36 12 0 3.2681071958140846 4.253094385476321 11.798622618483769
37 12 1 3.1015400189106623 3.647514985224721 12.573148927580474
38 12 0 3.336255454683559 3.6421441633291995 13.542168751606644
39 13 0 7.741585081606837 19.559710149520846 12.901377168362767
40 13 1 7.278575050752788 19.074346150911172 13.611411507903291
41 13 0 7.340712154159081 18.104408394868948 13.685678942354707
42 14 0 17.596831865954137 16.658050702809355 12.78991761077962
43 14 1 17.828174802871903 17.121617141126265 11.975858961466656
44 14 0 17.228326315660834 16.950508988832418 11.239967249909462
45 15 0 12.887897705883104 9.354458388056804 16.92706080280386
46 15 1 12.72622456473567 8.787570956778058 17.68768217566989
47 15 0 11.778795703827612 8.706037019023174 17.827142164317667
48 16 0 16.145074047950683 13.933622275382794 18.407628377033408
49 16 1 16.97483173412976 13.454676193403245 18.27947721644312
50 16 0 16.860889965650216 12.68487586295515 17.714089807114586
51 17 0 4.8545134518971205 5.316576223999247 5.254025851709408
52 17 1 4.188375340694332 5.859222118380911 4.728260341162397
53 17 0 4.449589443550335 6.691536854872764 4.290821106499304
54 18 0 17.004001290660188 2.1050463895358362 8.516913416694877
55 18 1 16.853999720361447 1.3140603950430854 7.988648374389427
56 18 0 15.926877700915817 1.0576412357211722 8.013037241836102
57 19 0 18.25280007309821 3.6554123624291948 8.057744808120924
58 19 1 18.82848356840603 3.7551026966009267 8.827714898707127
59 19 0 18.42232736452033 4.278700414985422 9.538889454066936
60 20 0 5.693785457454371 16.6701882610341 11.58109555582963
61 20 1 5.3142832183171835 17.439030715065453 12.055913676848414
62 20 0 5.736612793679486 17.544539995321564 12.912244197359609
63 21 0 13.751812548441208 6.119068219926594 11.389933234644086
64 21 1 13.633001290395933 7.070614271094415 11.472579942834148
65 21 0 13.300509563621986 7.2675103232952445 12.35318924810839
66 22 0 13.896156798834994 1.6477955286656185 4.183848727615732
67 22 1 14.39557832953218 0.9067366570033154 4.546213265820608
68 22 0 13.850971873393936 0.38254290665951773 5.154940035751462
69 23 0 17.113852778739453 4.869194093895041 14.83400005013514
70 23 1 14.891783358825545 3.682495676422275 16.94933846263691
71 23 0 16.823438605145416 3.7665495138029685 14.513864307095261
72 24 0 0.991291745715209 18.278953909216128 11.879298798614176
73 24 1 1.1269834340439542 18.393624722760038 10.932936823271127
74 24 0 1.9735676101251212 18.0103495302078 10.67746147164904
75 25 0 10.110951574241897 13.649411821191253 11.917762390908353
76 25 1 10.689407040515158 14.264675887336102 12.40167309303995
77 25 0 10.395235825047083 15.150216518640539 12.680805075038077
78 26 0 11.63390884877911 4.626636392524819 16.06398433589216
79 26 1 12.541418275454475 4.11660800993965 16.219752170387356
80 26 0 12.669654748332746 4.348731981049316 17.15244100704851
81 27 0 6.391238582253573 9.799380423876366 15.708359743607202
82 27 1 6.571026706193687 9.51462927989377 16.608737361252757
83 27 0 7.326040520363121 8.92011427075163 16.602730915908747
84 28 0 8.97168158766696 7.9430231812277174 16.497968006712313
85 28 1 9.714826437499736 7.37478788914536 16.745279739788316
86 28 0 10.213178644942046 7.083872837759144 15.973458591491466
87 29 0 16.220878499230455 2.7004520759861497 4.234345838201968
88 29 1 16.449837353092935 2.2771520526609415 5.080427437698171
89 29 0 16.27017145658474 2.595119628757699 6.055137210597224
90 30 0 18.258096360542513 7.064730517947468 15.581828572812865
91 30 1 17.628986483597366 6.586848401506009 16.161661724244663
92 30 0 16.662126720048672 6.765898717846091 16.12569219096805
93 31 0 3.110213862855744 17.71571600344032 2.4726357061808812
94 31 1 0.9626705276031383 4.834466297159721 12.014957040605918
95 31 0 9.089493489147559 1.3457655432401905 15.725573890599383
96 32 0 14.183139283778894 10.424427741508374 6.065437424406359
97 32 1 15.048938330731328 10.64852774974262 5.660570194082955
98 32 0 15.284321920191028 11.446769725291732 5.136776846554832
