ITEM: TIMESTEP
145
ITEM: NUMBER OF ATOMS
99
ITEM: BOX BOUNDS pp pp pp
0 20.0
0 20.0
0 20.0
ITEM: ATOMS id mol type x y z
0 0 0 5.111459634355526 10.088845171657242 14.212240135214275
1 0 1 4.512780946531778 9.420207423325412 13.854363899374325
2 0 0 4.8702637580831505 8.915999376098824 13.111137470500072
3 1 0 10.30928253747374 17.33117674807393 3.7231984477603204
4 1 1 10.341587794962804 16.54273101787499 3.174698272801708
5 1 0 9.953813589161001 15.807890483188604 3.693283780221394
6 2 0 6.6617530575812 2.9265152733844078 15.28611709919222
7 2 1 6.071121625308772 2.3242524724291713 14.821563483860968
8 2 0 5.737614314255815 2.7309311337943845 14.015129810163623
9 3 0 3.2667321651764114 16.261728026348266 9.162866096192452
10 3 1 3.6136504274088774 16.14693435401871 8.27171452341785
11 3 0 4.573657346035302 16.05847675328469 8.263681903700116
12 4 0 7.837326272044907 6.7825672453313475 3.79576899958936
13 4 1 8.208872024980682 6.442972174682282 2.9460751506175384
14 4 0 9.076756148310716 6.0162300679864265 2.761556610707274
15 5 0 6.793450872239982 15.745068279069187 17.00603225957018
16 5 1 6.504913593306006 16.657047239994743 16.85043801078689
17 5 0 6.380678492080842 16.94618817077755 15.934728064997618
18 6 0 2.3877636142835668 12.709282536058144 15.085858380905636
19 6 1 1.8310637300937953 12.863114295954322 15.856249291359608
20 6 0 1.4916847643019835 12.038136185853693 16.21838637133797
21 7 0 12.389943537015208 5.056512689897329 13.42969748921078
22 7 1 13.470483547253298 17.990834449726826 19.733380443757806
23 7 0 10.889041100277685 4.947445056699376 13.913901348241362
24 8 0 2.1583928620014596 5.365266851423752 4.440313798828081
25 8 1 2.2694256941542736 5.732184878013547 3.5662073574408955
26 8 0 2.6408002038277867 5.1202778543320875 2.917791667949528
27 9 0 3.4740528018839094 16.88990233233777 3.2136906353769557
28 9 1 4.266384829196921 17.251360684389635 2.669118584840881
29 9 0 5.25734756632772 17.11206096952178 2.4379273610991374
30 10 0 18.083388103827534 11.759071147426432 15.240938151538764
31 10 1 17.68619090271492 12.300739814210635 15.965909769193093
32 10 0 16.8740896344861 12.088247775614912 16.47358024231691
33 11 0 4.917372815968831 13.593014740507869 18.917048623693134
34 11 1 5.213591716267695 14.521693187746123 18.93435697107708
35 11 0 6.086153785418575 14.84266275247931 18.628643152883672
36 12 0 3.2696257679801772 4.2544922670006695 11.801429331151175
37 12 1 3.1009862353605895 3.647321578543612 12.572948436476636
38 12 0 3.3376054859488886 3.6450240767803384 13.54075092083218
39 13 0 7.741925662332389 19.55815004990381 12.90117352825126
40 13 1 7.278473621438303 19.074402028403764 13.611482528310633
41 13 0 7.3416125465106035 18.104780661544304 13.684405240333504
42 14 0 17.596365601660416 16.657849451575036 12.789534388488946
43 14 1 17.828216172046243 17.12165732851807 11.975855775745796
44 14 0 17.228053904360216 16.95014860460738 11.240413693491417
45 15 0 12.887916820235981 9.354435431982733 16.927092589322125
46 15 1 12.726222167493953 8.787571768346563 17.68767804264211
47 15 0 11.778806142813988 8.706026801356176 17.82716534473015
48 16 0 16.145020280874427 13.933329115100674 18.407417839940834
49 16 1 16.974888285833448 13.454611994671952 18.279330828525143
50 16 0 16.86063271012703 12.68493816045521 17.713956276691857
51 17 0 4.854602886209243 5.318274585833754 5.253007432775478
52 17 1 4.186742849431177 5.859047524905559 4.727345990255848
53 17 0 4.450885475338435 6.69098920466507 4.291534653422966
54 18 0 17.003814563162667 2.105000987470206 8.516927550997247
55 18 1 16.854008949061 1.3140651418333074 7.988619659682972
56 18 0 15.926872563481556 1.057786451643936 8.01314557013674
57 19 0 18.25257739806551 3.6556855477209034 8.058085659562522
58 19 1 18.828509271299634 3.755088279974508 8.82772333800521
59 19 0 18.422090205199304 4.27857931876935 9.538399702623801
60 20 0 5.693636879757633 16.670609297459162 11.58145637855692
61 20 1 5.314314436236958 17.439031517452264 12.055912174480202
62 20 0 5.736688600689539 17.54444827611284 12.91223445574596
63 21 0 13.751832528373104 6.119118676893063 11.389863159125314
64 21 1 13.632999657374146 7.070607197280704 11.472585071787154
65 21 0 13.300514371671776 7.267583338135584 12.353155966215406
66 22 0 13.896030072387324 1.647649427385381 4.184001015619719
67 22 1 14.396154766521768 0.9069678947384544 4.547576008202525
68 22 0 13.851046048592856 0.38287744858913025 5.154859358573
69 23 0 17.067244181190166 4.84517489037485 14.878916818688392
70 23 1 14.896746902120787 3.6842499860649207 16.943295741054943
71 23 0 16.783554300970273 3.7637600597901826 14.563450206870273
72 24 0 0.9913245258896878 18.278946772727792 11.879248658877186
73 24 1 1.126982078710461 18.393625402245704 10.932937735191938
74 24 0 1.9734993243155141 18.010375067645423 10.677511761041288
75 25 0 10.109905239279964 13.650799505263373 11.917982774080341
76 25 1 10.689561792581369 14.264629014499414 12.401709261312567
77 25 0 10.393816586970638 15.149575740487627 12.679998266913454
78 26 0 11.63623852495399 4.62491872481013 16.06316052428578
79 26 1 12.54162835164937 4.116688616144918 16.219938219264566
80 26 0 12.670905552893029 4.347881179492492 17.152218645314743
81 27 0 6.391188962380413 9.799420640870679 15.708394820286651
82 27 1 6.571027689589801 9.514628122055269 16.60873047998073
83 27 0 7.3260322346537805 8.920108745979341 16.602804214776445
84 28 0 8.971909717830075 7.942878245124229 16.497732012727607
85 28 1 9.714827559538271 7.374785918485032 16.74530258084357
86 28 0 10.212951035209397 7.084048591473461 15.973341855383874
87 29 0 16.219847415795346 2.702330684627437 4.235986349991425
88 29 1 16.449597205638376 2.2767191176706625 5.0804583384895325
89 29 0 16.269529820212288 2.596322001868019 6.052092517296421
90 30 0 18.263012998660585 7.046799194845588 15.590320767373104
91 30 1 17.641159238268227 6.588304919786966 16.155403235654553
92 30 0 16.66310388464999 6.766821113178185 16.12460764314423
93 31 0 1.9572411003143708 10.361143047745353 9.787768712389111
94 31 1 0.9861742167654604 4.839438885869587 12.018006594748579
95 31 0 8.872652341116282 1.4389944970466013 15.6264671015421
96 32 0 14.182758138766845 10.426608900262035 6.064336422908288
97 32 1 15.049111144136422 10.648373860119708 5.660600797277054
98 32 0 15.281937257585467 11.44705431850868 5.137385890545762
