ITEM: TIMESTEP
148
ITEM: NUMBER OF ATOMS
99
ITEM: BOX BOUNDS pp pp pp
0 20.0
0 20.0
0 20.0
ITEM: ATOMS id mol type x y z
0 0 0 5.113697068455539 10.087184698887812 14.209114822295891
1 0 1 4.512450996972308 9.420144205609356 13.854495839846152
2 0 0 4.873365612173263 8.918633028433417 13.112102316328253
3 1 0 10.309965118087206 17.332037647823864 3.722029740778494
4 1 1 10.341454819254915 16.542591836985718 3.1749476767167426
5 1 0 9.955294232680384 15.809261826105343 3.6904521219848423
6 2 0 6.66142294101349 2.926943235225164 15.28530120877427
7 2 1 6.071153568574993 2.3241673296281684 14.821603557999968
8 2 0 5.738224582542287 2.7315634338939625 14.015571860528784
9 3 0 3.2688588737555127 16.261562879174043 9.163301285349378
10 3 1 3.6135495918332134 16.146917609967005 8.271534982032776
11 3 0 4.573170468008209 16.058717129989283 8.265811843215754
12 4 0 7.852084643745335 6.776636898740177 3.7991133570903113
13 4 1 8.20795173939938 6.443147330791027 2.9448678784304185
14 4 0 9.076926588818647 6.019387603271458 2.777437389902985
15 5 0 6.793148639705492 15.745308235085444 16.99907798033888
16 5 1 6.504789086410298 16.65740586474631 16.850982347219986
17 5 0 6.382670338955427 16.939624871206 15.93376266157705
18 6 0 2.3873261174237035 12.707678471523646 15.086253808253616
19 6 1 1.8310190236558537 12.863255157012308 15.856305874932536
20 6 0 1.4925955755082199 12.03752824250004 16.217079125153493
21 7 0 12.559419857629813 7.103138392338576 14.427136734183303
22 7 1 13.430418842685064 17.750695748868534 19.61978407447684
23 7 0 11.29743190029316 7.012331844967516 14.834694767233806
24 8 0 2.1600185782877745 5.361040609780017 4.440287170117929
25 8 1 2.2796119435630398 5.733279889660075 3.572210855096221
26 8 0 2.640604136954355 5.117846864675153 2.9212461872571924
27 9 0 3.497510220631068 16.875793675943992 3.2164411413775906
28 9 1 4.265577488823115 17.25339051899207 2.6678455930874
29 9 0 5.246778269179996 17.093708346193 2.455484512856943
30 10 0 18.07204225977258 11.753103923917706 15.245809745279692
31 10 1 17.686484046024155 12.30226086774666 15.967195314608402
32 10 0 16.875533666506985 12.078059554414265 16.46487327904123
33 11 0 4.928928637167937 13.592035625287277 18.912236270158957
34 11 1 5.2128678144163665 14.522569578672908 18.93476056136541
35 11 0 6.086521554714635 14.830175671460788 18.626692079863336
36 12 0 3.2786074858077123 4.262730999909434 11.817843127455683
37 12 1 3.0968094552559253 3.6475558620064623 12.571621456456311
38 12 0 3.3455416199078685 3.661871609117663 13.532277588590745
39 13 0 7.743936692462587 19.549030338765185 12.899960543243685
40 13 1 7.277870225855157 19.074723423790264 13.611892146848634
41 13 0 7.346890186428843 18.10693669861313 13.676951149060917
42 14 0 17.593642625658244 16.656673536810523 12.787298019386546
43 14 1 17.82848686600907 17.121864723783716 11.975830601764782
44 14 0 17.22646344473459 16.948044365829325 11.243020631813462
45 15 0 12.888032043315214 9.35430872249448 16.927269671987695
46 15 1 12.726206938815599 8.787593139321578 17.68766596068779
47 15 0 11.778864918806962 8.70596894031152 17.82730166140529
48 16 0 16.144967994183446 13.931584878122832 18.406198966107517
49 16 1 16.97531754714747 13.45419206632904 18.278415812815474
50 16 0 16.85912559892332 12.68526991249185 17.713110406167512
51 17 0 4.854383644329829 5.328234078121718 5.246831047867047
52 17 1 4.176020318204893 5.857945751675499 4.721262008639502
53 17 0 4.458037659988116 6.687761766778658 4.29562338667724
54 18 0 17.002725705499348 2.1047429329182146 8.517016147994317
55 18 1 16.854095819117784 1.31410271376165 7.988471133992934
56 18 0 15.926853988094418 1.0586332502518936 8.013790816988148
57 19 0 18.251258477030387 3.6572839443509557 8.060057819308627
58 19 1 18.82866116564249 3.7549997085580005 8.827770848705619
59 19 0 18.420670944160953 4.277910473189188 9.53558635784922
60 20 0 5.692831788790475 16.67295180662348 11.58350071748945
61 20 1 5.314501775451875 17.439051299640994 12.055914491651007
62 20 0 5.737138595867198 17.54390627506938 12.912179410696934
63 21 0 13.751951110864564 6.119399027408564 11.389453577040547
64 21 1 13.632990808847115 7.070566099204999 11.472613504657648
65 21 0 13.3005406071796 7.268010480310462 12.352966995065215
66 22 0 13.895359616400865 1.6467833974376884 4.184870470688229
67 22 1 14.398278975055378 0.908312151026207 4.548127938676404
68 22 0 13.851012429137757 0.3844756906575622 5.153642717181569
69 23 0 16.80949530941563 4.71311167213497 15.12747992323875
70 23 1 14.924004460287268 3.6939761732110763 16.909877126447018
71 23 0 16.562976181267643 3.7475556406600155 14.837075341486136
72 24 0 0.9915138789056669 18.278903438274305 11.878969715529868
73 24 1 1.1269723687864173 18.393630500753925 10.932941987629075
74 24 0 1.973117977662439 18.010516310580655 10.677800863719755
75 25 0 10.103795709007612 13.65892510472088 11.919279901986666
76 25 1 10.690466126081487 14.26435430932592 12.401920668269563
77 25 0 10.385518825719533 15.145818738819987 12.67527692095278
78 26 0 11.64938842010591 4.615114619422129 16.05819871436664
79 26 1 12.542982078319307 4.117113499831894 16.221109303030925
80 26 0 12.678318500852878 4.342900245125067 17.15107415788979
81 27 0 6.390899653237587 9.799658672858522 15.70859379990538
82 27 1 6.5710325919718375 9.514622006716417 16.608690395775223
83 27 0 7.325985038651832 8.920075500984858 16.603232368081702
84 28 0 8.973209253284779 7.942056931210765 16.496340626797505
85 28 1 9.714835673886235 7.3747734608280995 16.7454387699915
86 28 0 10.211623620369455 7.085073354516809 15.972654260956679
87 29 0 16.21386432011215 2.7133210822560123 4.245738145738953
88 29 1 16.448137412420575 2.2741388194000502 5.08051355815205
89 29 0 16.265658243508714 2.603619725111808 6.034654716089983
90 30 0 18.2557134065523 7.052128540965785 15.585855251842723
91 30 1 17.64139382518118 6.58764053668235 16.156005104427337
92 30 0 16.67026707730547 6.772332870960325 16.117871481229987
93 31 0 1.876049872659844 9.338117662125331 10.021081433561275
94 31 1 1.0732807330325194 4.852085972461576 12.032567487038126
95 31 0 7.668974979691101 1.9616496278028774 15.074007258159218
96 32 0 14.180543132882125 10.439392573545868 6.057877099128822
97 32 1 15.050123766320805 10.647471729633798 5.660780039009367
98 32 0 15.267962654613742 11.448719829413797 5.140956438252772
