ITEM: TIMESTEP
149
ITEM: NUMBER OF ATOMS
99
ITEM: BOX BOUNDS pp pp pp
0 20.0
0 20.0
0 20.0
ITEM: ATOMS id mol type x y z
0 0 0 5.114462325177751 10.086621953119527 14.20804996598226
1 0 1 4.5123383471625065 9.42012257886862 13.854540984627178
2 0 0 4.874425118802048 8.919528315011055 13.112427014031399
3 1 0 10.31019695504774 17.33233037806883 3.7216330253188397
4 1 1 10.34141131571859 16.542547665212005 3.1750302542507987
5 1 0 9.955771491569163 15.809677803606379 3.689523966982205
6 2 0 6.66131696565784 2.9270995789659056 15.285030586749079
7 2 1 6.072685504591558 2.3238580527105546 14.821763269814896
8 2 0 5.738434694785955 2.731776215655786 14.015727427867771
9 3 0 3.2695831777775335 16.261506355326954 9.163449617042287
10 3 1 3.6135150349021306 16.146911639583024 8.271473331592137
11 3 0 4.573008751915287 16.05879854935049 8.26653725298745
12 4 0 7.857138948644724 6.774606505261264 3.8002611654441454
13 4 1 8.207637433899261 6.443207056404171 2.944454094697869
14 4 0 9.076975831968113 6.020473219718776 2.78287688079266
15 5 0 6.793046968136577 15.745388481211204 16.996706566340496
16 5 1 6.504746011848626 16.657527367725447 16.851168917676148
17 5 0 6.383349981775912 16.937386035925666 15.933438398244656
18 6 0 2.387177548308897 12.707132038475928 15.086387678313097
19 6 1 1.8310034054893507 12.863303258213758 15.85632516474984
20 6 0 1.492905365603354 12.037320380180825 16.216634240718008
21 7 0 12.612622311554755 7.7523692577307095 14.74371808352982
22 7 1 13.418966136503165 17.66917579387225 19.581751062620082
23 7 0 11.427472638869503 7.667443805382954 15.12663132435303
24 8 0 2.1605720991414863 5.3594806103371075 4.440383146695679
25 8 1 2.283716969321962 5.7337032092504625 3.574630150194641
26 8 0 2.640514605312124 5.116986396685691 2.922478633156943
27 9 0 3.505570666224604 16.87088311364594 3.217433834705319
28 9 1 4.2652970937184564 17.2540954777365 2.66740341942908
29 9 0 5.243193410226286 17.08734545593646 2.46154455059509
30 10 0 18.068159544292506 11.751081496640628 15.247489381470546
31 10 1 17.686576608583664 12.30279419610348 15.967662411979383
32 10 0 16.87600681406018 12.07457172428144 16.46190710417436
33 11 0 4.9328808596008615 13.591720071479488 18.910593707515567
34 11 1 5.212620740772994 14.522868773339098 18.934897812051332
35 11 0 6.0866476200560085 14.825907978649504 18.626026288495453
36 12 0 3.281720224564713 4.265573437339751 11.823436316790742
37 12 1 3.094992819553707 3.647886906733104 12.571068886747417
38 12 0 3.3482656513089557 3.667616326564394 13.529293872154044
39 13 0 7.744630979782482 19.545918962946814 12.899537697740017
40 13 1 7.277659733899211 19.074830687723832 13.612029306754522
41 13 0 7.348696737858112 18.107664035211368 13.674404655540666
42 14 0 17.592714685093007 16.656272571018572 12.786536601151184
43 14 1 17.828579132241938 17.121935466238043 11.975821930459997
44 14 0 17.22592164082038 16.94732746010699 11.243908932592953
45 15 0 12.88807178650318 9.3542683516304 16.92732665664451
46 15 1 12.726201820769942 8.78760068018068 17.687662777738705
47 15 0 11.778883839284665 8.705950047467288 17.827348667301592
48 16 0 16.144957483695865 13.930977822411165 18.4057768561494
49 16 1 16.975473274307266 13.454035942177097 18.278076014014527
50 16 0 16.85861095128543 12.685368672125781 17.712792199043033
51 17 0 4.853948400205249 5.331646611675332 5.244612906293585
52 17 1 4.171768868242902 5.857529264840815 4.71881498222516
53 17 0 4.4602720257131745 6.686648201356465 4.2969758083753025
54 18 0 17.002355638442204 2.1046580732574363 8.517049109700256
55 18 1 16.854125709136316 1.3141172798434382 7.988417620155922
56 18 0 15.926848961435876 1.058920829722109 8.014010792748985
57 19 0 18.250801462299666 3.6578299916641828 8.060722214883453
58 19 1 18.82871377500235 3.754967673462161 8.82778619268435
59 19 0 18.420173339162982 4.277698343691155 9.534646746029543
60 20 0 5.692583147816995 16.673702418849782 11.584171776586013
61 20 1 5.314568043645706 17.439064605535165 12.055920085164784
62 20 0 5.737295270977434 17.543718926476558 12.912161847560276
63 21 0 13.751992100937553 6.119488870228287 11.389313743666301
64 21 1 13.632987636544183 7.070552127425667 11.472623016219703
65 21 0 13.30054860454168 7.2681562007164535 12.352904976682852
66 22 0 13.89515554593602 1.6464949778064306 4.185150573144783
67 22 1 14.399065784854317 0.9088142445234281 4.548335655699293
68 22 0 13.851047514244819 0.38502320850751837 5.153207306834604
69 23 0 16.72756901720106 4.671568972082556 15.206627072991846
70 23 1 14.932582456045733 3.697080729812452 16.89924995946017
71 23 0 16.492794052452524 3.741942489973083 14.923723972978015
72 24 0 0.9915776713968039 18.278887948771953 11.878880204177783
73 24 1 1.1269681052225897 18.393632770654182 10.932943331644267
74 24 0 1.9729951605189566 18.0105612224364 10.677897489339738
75 25 0 10.101714369255498 13.661702984480735 11.919726037780467
76 25 1 10.690774578695953 14.264260482892213 12.401992628220244
77 25 0 10.382687571824759 15.144532329176648 12.673663967861332
78 26 0 11.653685269602132 4.6118653992349605 16.05642744161325
79 26 1 12.54348132802758 4.117250789190374 16.221506852179406
80 26 0 12.680890330224736 4.341197467025026 17.15074859501085
81 27 0 6.390801253611505 9.7997410774338 15.708659221058593
82 27 1 6.571033796817628 9.514620045784437 16.60867686435911
83 27 0 7.325969399812861 8.920063735204405 16.6033783657617
84 28 0 8.973638598758303 7.941787345959002 16.49586109388978
85 28 1 9.714838933735958 7.374768380372512 16.745486141834476
86 28 0 10.211171130520343 7.085421302434324 15.972418030944766
87 29 0 16.211843135433824 2.717073415495163 4.249130240153619
88 29 1 16.447574674675035 2.2732062991769655 5.0805049330004035
89 29 0 16.264289945939275 2.6062182085440653 6.028849759222409
90 30 0 18.2531451865976 7.054017239104971 15.584323041432041
91 30 1 17.641413095035954 6.587406627926445 16.156244793203268
92 30 0 16.672638904423124 6.774235996064807 16.115561566716263
93 31 0 1.8335105083748304 9.097284051091997 10.129197046441687
94 31 1 1.1013874744113594 4.855726936806087 12.037279595438653
95 31 0 7.260386349763061 2.134871146742423 14.894280669227378
96 32 0 14.1797932789177 10.443767465554417 6.055663917941084
97 32 1 15.050469771783403 10.647163125444052 5.660841469435837
98 32 0 15.263180944609992 11.449288133457596 5.1421790667484935
