ITEM: TIMESTEP
17
ITEM: NUMBER OF ATOMS
333
ITEM: BOX BOUNDS pp pp pp
0 50.0
0 50.0
0 50.0
ITEM: ATOMS id mol type x y z
0 0 0 27.337533963030108 30.397017748620524 31.034482446824693
1 0 1 27.116092683336415 22.083500265600392 32.63077200357508
2 0 0 23.97066460142963 35.54337457481902 41.97973380236146
3 1 0 22.616051666406754 41.92907786965202 17.785160000755518
4 1 1 27.593278757083414 45.012001052096565 5.030320646165806
5 1 0 13.855912575152875 18.955051723327973 26.63411053684346
6 2 0 39.12437640723178 35.65837649604436 44.92750403574644
7 2 1 39.10404901549206 23.777261095400533 38.48637877497874
8 2 0 19.361221873468615 28.584357993641564 19.812686634556467
9 3 0 18.463192198003398 13.59150539182599 17.320323033980003
10 3 1 13.584119112098135 36.814341288488755 22.557711116046193
11 3 0 22.08026908508652 17.982418675344153 32.61900203932495
12 4 0 31.967865472801005 25.748578255782146 37.374806051542805
13 4 1 34.025862729405034 17.93175853176476 22.73103974808666
14 4 0 34.56415633549658 8.801455119565084 29.083104617809497
15 5 0 26.63894862476174 13.684056566126714 14.920314224554678
16 5 1 16.34724537766383 18.758755378083688 27.412602161480486
17 5 0 19.606286477314544 37.086168945988724 14.1890729391798
18 6 0 18.9264569772015 17.980024330584307 23.998705746273146
19 6 1 48.6525707583279 41.594103737337925 7.894324875887092
20 6 0 17.476493562783055 16.330209637552876 24.019885154874803
21 7 0 20.14993299609296 8.121529672752985 27.56997639100324
22 7 1 39.335491835488256 6.050398635821692 40.87681007809782
23 7 0 18.991554848917954 31.404944293463203 30.625127811107266
24 8 0 4.761666192750759 33.23153189629157 47.260043962516335
25 8 1 3.2817130894060087 14.402290044667028 7.069184671821406
26 8 0 10.163329514126326 9.155411953669052 12.303530790274364
27 9 0 23.461817207326646 7.088441737865355 31.53843250968442
28 9 1 27.583087338882358 13.411392831467959 26.847800684044852
29 9 0 13.923938281340774 22.653573830045808 38.54863959092919
30 10 0 23.635357345215365 25.936962682216695 7.770243636368627
31 10 1 35.18244487664156 14.598038214987273 9.87863505738226
32 10 0 31.762078020004612 6.395399352503345 28.760878839015618
33 11 0 14.55864559107989 39.38094911909604 13.172520597449537
34 11 1 35.684311595001105 47.32229267102266 12.85015859821129
35 11 0 31.69107222823961 36.705780648871 22.341037498866495
36 12 0 23.740731965588587 43.53413217540346 17.846647494536278
37 12 1 42.80862047622991 38.309800141621096 9.5715091295822
38 12 0 41.51480002038059 26.812979890869293 30.877546752162573
39 13 0 31.82963213969311 36.70030632653619 39.635575500902355
40 13 1 35.995279189764965 25.429027697846724 47.07811706701236
41 13 0 33.71320774924675 22.77436257594075 36.92849478009704
42 14 0 6.157189365001671 21.113649627328165 28.57105594205085
43 14 1 13.998568984702422 30.146651932870178 21.88072740932342
44 14 0 9.6590971890645 20.94541601072761 25.8588057497631
45 15 0 30.62346496963948 26.028024091332426 37.238388805145355
46 15 1 32.20436517416676 21.741828574300882 44.539675762090134
47 15 0 23.711571515597466 21.74603642428543 44.62110003265424
48 16 0 42.32482923222063 35.44267403787517 22.50266847101523
49 16 1 44.89608621443515 35.88740623900817 47.8289214432899
50 16 0 22.70580526168594 40.352569698325325 24.447999688134786
51 17 0 35.652796764648244 13.763614065534492 34.62330472135497
52 17 1 46.583342708499686 23.35897111191554 24.29252319690657
53 17 0 19.32296586308857 31.02607534219575 22.730110559034276
54 18 0 38.71732362194243 26.440102911868383 36.63152211205957
55 18 1 42.48415692969815 1.8137962464466841 18.932952292920632
56 18 0 38.79896053311226 5.837925556026228 23.224232064196993
57 19 0 17.310697431966425 10.605812444447892 7.272514224227752
58 19 1 38.94959013746579 11.744705855854798 16.49440636957506
59 19 0 43.57515023386864 25.840014775182368 7.616805810264967
60 20 0 9.700554863620615 36.90942914104326 29.588326723464505
61 20 1 12.16407598854327 45.93508590661575 30.793817105481224
62 20 0 21.005119348188458 36.06975139165191 34.25035316250375
63 21 0 12.814015168508734 30.70070986715985 20.360352129509447
64 21 1 9.827073701352301 45.68878375001177 35.74138363193769
65 21 0 18.55269646245961 25.36735486205834 22.14400902089811
66 22 0 15.200655136666287 20.52427216811682 13.144440017600324
67 22 1 33.23546440892751 18.5766081816926 9.74692102136507
68 22 0 14.305943126549579 9.503212887005889 24.147289444586914
69 23 0 32.986986809848744 20.51440443941901 40.28948811360222
70 23 1 47.989673208095574 10.992746721303893 33.55109645765318
71 23 0 27.30155551971371 4.978584671521803 36.11188847570764
72 24 0 25.830843586313346 24.017074680813202 34.77782007442513
73 24 1 40.25947581864142 31.358981439499836 42.45502618668063
74 24 0 24.53385603372478 36.49717548112213 22.757861677422753
75 25 0 47.444237741472065 34.91272177403341 11.245772063417297
76 25 1 46.47786760895938 36.248064153564336 12.387366231123575
77 25 0 25.112359907741308 30.08663717334268 5.7681595575513755
78 26 0 15.3785512175001 18.366356437283024 22.723733640229202
79 26 1 23.380079053546552 13.704135892045802 28.665575169607767
80 26 0 35.40680773716126 8.989365037251595 27.11990454182775
81 27 0 15.088607999576801 25.417159638180134 15.095928093866275
82 27 1 27.650298477238536 10.021722317827404 8.510657662100526
83 27 0 25.803422964346446 14.53875485855842 31.428701412564397
84 28 0 25.108062812882363 33.496291944997886 38.81145053009866
85 28 1 6.066767821075439 27.5308723817503 29.191974845621584
86 28 0 30.924866531070982 19.80359503837349 18.925171928878576
87 29 0 16.2773738858154 15.851929083959934 33.66906220972006
88 29 1 32.640957177993585 37.40069578966635 14.970238715459399
89 29 0 30.790913185559965 17.137682783559445 20.440199898872734
90 30 0 48.55499480994186 31.266590803952802 28.872913290153
91 30 1 48.07357130570391 13.052309113579621 46.33914990968745
92 30 0 47.46830254394606 29.043103399675267 37.58687924793545
93 31 0 18.789345501220488 6.3835704449709025 9.727339510736421
94 31 1 30.246117673034643 2.187455188897454 17.622959803994608
95 31 0 24.47416953855768 33.91925723160135 25.278306879638084
96 32 0 18.02540653703321 35.32930333518002 14.95967012498421
97 32 1 7.725606361600283 40.16639900729642 9.593398088187048
98 32 0 18.320289643929094 22.892637735386153 6.74638697921009
99 33 0 43.762514031271444 44.63106504317421 35.78127958190554
100 33 1 44.386102360353156 38.322100381026296 17.78395651627316
101 33 0 25.07048549885018 16.294079310725838 42.386708821335
102 34 0 4.253908237445667 16.636134784912958 25.00514997950745
103 34 1 0.8013040309532847 36.83020573438418 8.688540573910378
104 34 0 2.668303956902773 17.697302372590297 23.418011661414823
105 35 0 23.7441850603984 25.888511360350613 23.984698242146983
106 35 1 40.11736394054901 31.76868961222618 20.089346358954728
107 35 0 20.436484589939052 14.98769463403764 16.289764555941126
108 36 0 22.144993275601266 24.411590812594298 32.04935313625072
109 36 1 38.807683892001435 48.4433627135477 48.62883656486595
110 36 0 19.827458525551965 34.36917865341647 13.305314389767263
111 37 0 26.299561458551164 31.018978810676977 35.05292760965396
112 37 1 13.513845587167442 19.174812010951808 29.146679331616685
113 37 0 13.503470011656745 18.70985355552583 17.396159107461898
114 38 0 15.60149916118575 11.684343951572446 30.389522828939207
115 38 1 4.907052541365819 25.914003066686828 16.359971054976633
116 38 0 18.34622989760437 40.18319379088767 26.658538379820016
117 39 0 11.42722704111847 26.337224567301043 21.155513993114027
118 39 1 25.71252323420641 33.4174791528693 14.983113410933031
119 39 0 14.32760115118051 25.251697957775338 34.512326971371365
120 40 0 14.503915215213338 44.65718162807151 25.70645448041576
121 40 1 22.85612191489757 43.54326148480087 23.56774883073309
122 40 0 30.891901548373145 29.434375482764526 36.485260696274885
123 41 0 35.4813847392348 33.963694160604376 15.085099290155014
124 41 1 37.042505154323685 32.0639386710696 12.968861356814884
125 41 0 19.789990226385953 36.6942456832732 33.766703438081386
126 42 0 22.95580820930917 36.69273186067841 37.52287964838658
127 42 1 23.19419107277014 47.67593147908737 29.47678478369421
128 42 0 33.99843942199386 46.35329214123762 36.251981079292484
129 43 0 6.374504331558435 27.513519776760486 17.498309630641277
130 43 1 4.207855172242943 20.959772340462873 13.950824726377155
131 43 0 26.891787424823715 9.46503087226995 34.10754849777072
132 44 0 14.384191513493898 18.868144897184767 18.830232669245703
133 44 1 9.365699493861207 20.660695209374527 45.28195954261633
134 44 0 6.695074701147974 36.661804401980234 44.38260742203286
135 45 0 25.741654038267797 10.798986200916204 7.516011135639064
136 45 1 30.369678595565823 2.566590762685902 1.1834779167491192
137 45 0 27.249356434800067 22.62568083015704 2.531552252185145
138 46 0 7.26311117464333 10.228514926585547 15.97005797914494
139 46 1 2.0302790813119325 7.010201439771413 30.083919891499516
140 46 0 29.65168071869159 32.17182080302079 24.47627182297592
141 47 0 24.305958043242065 20.63814909799838 30.278678834406822
142 47 1 47.61539907718622 4.177336024927429 38.65865608808436
143 47 0 27.943380154374577 8.777541413438431 35.410504514175564
144 48 0 10.589988658988084 27.47616924837796 18.175581939846325
145 48 1 2.7027894334333133 16.9898472866134 2.560083736059425
146 48 0 24.466417409077973 19.879028199798547 13.412732097106948
147 49 0 30.7006415636419 35.65194429499992 19.766842024034112
148 49 1 13.371559105742007 18.914203971999573 40.092709015535135
149 49 0 34.57222693008354 36.352579312291184 43.261845210041436
150 50 0 11.54259572609953 48.64490250333545 12.313090711377177
151 50 1 6.392625752533473 46.67350800055062 12.34371089485325
152 50 0 33.84090483951566 31.436003746336354 29.55094327902232
153 51 0 34.037138897003274 22.860211008140343 16.20404765192804
154 51 1 18.903150906027573 36.38292901279627 12.161205596865104
155 51 0 12.552287543931465 28.041321669651442 14.009100130508525
156 52 0 43.97076156771427 19.628084913883956 32.17671157820329
157 52 1 47.00236347619615 31.35566233661963 42.73779137100102
158 52 0 47.02749483639248 35.30506677414167 37.948305566304114
159 53 0 30.698854688446016 35.75596697264373 16.776128802766987
160 53 1 5.044879509787612 15.298098671312628 8.515453622756356
161 53 0 14.364057426122912 9.910263299305573 21.479067609984444
162 54 0 19.81389678660475 36.23108051058614 40.96717716062779
163 54 1 14.545075716452075 32.1005722964659 29.799595718929368
164 54 0 35.31106270736611 21.550617528738492 28.38686672506811
165 55 0 13.229198237212325 23.59131863430993 18.68947402203122
166 55 1 12.586280282898693 25.2711657304929 16.13576445676844
167 55 0 16.249084919199845 25.86893388900429 29.04702505732198
168 56 0 12.14261676833601 32.80098547881775 34.63701389248151
169 56 1 5.529541419572562 13.042905013840606 22.242030470750198
170 56 0 5.270111412764966 15.594267922203208 31.200923909120025
171 57 0 24.962841100426644 25.715893904983204 34.750108169795915
172 57 1 11.633292680917425 17.665914335899775 33.37635789831087
173 57 0 30.823349099993855 23.287115796127658 21.890026270067327
174 58 0 8.200914465894773 31.926785663124257 18.211839775246155
175 58 1 17.872296798572513 26.594342181370756 43.90007762536449
176 58 0 9.970167919288606 22.809259232808323 18.687131362616938
177 59 0 14.672922843309475 21.38179240229386 19.873925462576103
178 59 1 11.236290822701768 7.069071678685488 28.949725576442795
179 59 0 25.238571360894877 22.784853427102043 40.038372680474744
180 60 0 11.725424066448001 38.5430762028801 18.647118997332356
181 60 1 28.853515182046685 47.576620257643384 2.1423639660281095
182 60 0 32.56862746072558 43.49085914332981 16.081754233943677
183 61 0 21.18740920544164 35.85615981214805 16.21425346740393
184 61 1 21.630726839554818 26.070237572504766 33.732315991783594
185 61 0 12.396136814955783 18.991041546809903 28.545607263661907
186 62 0 21.739556637654665 46.12202905133024 35.769345585658954
187 62 1 7.736104498395135 48.66512490949253 42.86705961058732
188 62 0 19.21608627329888 40.79519243049436 32.65635281139538
189 63 0 45.94312260990395 26.02568101991702 32.72500957770145
190 63 1 45.34645694295613 3.8877617106867133 9.859953601012856
191 63 0 29.963660032886928 29.697532708428664 12.749402599240648
192 64 0 37.960156242555 26.841169535383287 4.70020626294347
193 64 1 43.97405303010703 8.78719339232895 32.77178187844501
194 64 0 30.847501465741118 5.645498821794263 34.07853011543021
195 65 0 8.91841533861532 19.118725337380948 16.409240837242088
196 65 1 4.298381036886804 44.04122047848996 35.90780289086735
197 65 0 28.443897516566636 38.020181603526986 30.414224396719128
198 66 0 18.41928632742335 37.657646892353135 30.206078323406434
199 66 1 22.979851119783387 19.606326844945865 47.87124924233122
200 66 0 14.38404542698783 17.54081446329453 39.59863777115562
201 67 0 7.4349838650662115 23.31619093872337 24.546383879524363
202 67 1 14.03235219351683 12.620942454374553 25.48072576073987
203 67 0 16.758594619545658 18.817174012925328 20.197349230402235
204 68 0 36.146977681896665 15.829415567196381 15.867610083211654
205 68 1 17.997594083233594 29.482345315925194 31.906678047695294
206 68 0 18.992533798283315 41.91112902032144 23.40230252980156
207 69 0 40.853392164105244 36.53763678968982 39.559995635414474
208 69 1 48.172669598898736 43.52040252318084 37.53526943142792
209 69 0 40.28327522912172 27.658060160044208 19.563737525180823
210 70 0 13.967878495513578 26.317261072073972 38.650378771734324
211 70 1 25.133819688410558 37.35748794035437 47.113244370630504
212 70 0 13.731814099997896 18.36390991336424 36.669080641148575
213 71 0 41.791903329828564 33.69393937313648 35.856418042206116
214 71 1 48.12601466895731 20.92531483210008 19.711306493187013
215 71 0 23.90570780550261 28.758244402089545 27.437309879568108
216 72 0 37.75500384515467 7.598943464787844 18.625296737508847
217 72 1 29.718470604933096 11.687602377187815 9.200350930517134
218 72 0 37.683123599133154 6.41719929766853 17.802260214106855
219 73 0 11.837177593544912 30.636925807081994 32.01838260155118
220 73 1 20.627598404509 41.82570995367616 7.255324669876815
221 73 0 16.442319033142944 28.89473045195438 14.738667861902695
222 74 0 29.140233105379455 23.978272428101494 23.530451813885325
223 74 1 22.550087546392657 33.822711441784826 5.5723585313576365
224 74 0 27.40960789053581 15.794510478523284 26.70541370879091
225 75 0 22.107285117494044 29.926833217539752 24.364671649129093
226 75 1 6.430642852813481 20.18955301800545 20.824965369457782
227 75 0 12.106911925255197 8.882709310578845 30.44360692748427
228 76 0 15.907077197934427 37.00696029847896 23.455318701350674
229 76 1 31.38507741201761 46.3946972350813 6.419848231235443
230 76 0 38.608453253119784 19.767292674550188 18.37317597626401
231 77 0 16.233422634756252 16.47353748287599 21.152789054781113
232 77 1 10.575366541308224 1.9911959907878474 25.36592754846021
233 77 0 29.365589122300392 11.834845409157438 16.91052248266449
234 78 0 4.485432415870896 7.567328093114191 8.31922239740792
235 78 1 6.148094280743158 12.055824675881235 4.371951099190723
236 78 0 4.0688904414378 31.022532087336465 6.374070858052766
237 79 0 20.120242837368895 27.460645808175215 22.457918793540745
238 79 1 8.608111435845132 10.852539269525218 22.09459349760807
239 79 0 19.241335398952828 14.719920059430631 32.309742180891405
240 80 0 40.353968839836085 35.94691775601041 18.224265858603992
241 80 1 44.36144412559249 20.99597796368059 42.74028613137775
242 80 0 38.504162337659075 37.89065846245674 40.05272528191982
243 81 0 18.315191344916794 20.561132251140524 21.06544236512753
244 81 1 18.615297370896247 13.34156898345373 24.693687157268286
245 81 0 28.06107844881424 13.610479428447157 25.684743643223424
246 82 0 22.59778449503006 4.937889128652257 5.138728571836274
247 82 1 47.0659983011226 0.4765875398287687 9.621244527814579
248 82 0 37.44224839630549 2.587806475131644 30.219887724028755
249 83 0 27.809503456257936 40.056545819356685 33.663002665717585
250 83 1 15.725408114079107 27.584061341112317 45.713130226948046
251 83 0 5.934601673752574 2.0765417884569928 6.457326533979968
252 84 0 17.57252370268485 16.833142970476374 16.661893525158426
253 84 1 16.129048691390608 41.26646641803945 23.178616623290143
254 84 0 19.7689787654368 26.803446477495743 35.70336668113506
255 85 0 47.456547500494715 45.61951696485344 24.402646067839505
256 85 1 47.402455383704016 39.12693501137507 32.811131203808024
257 85 0 26.518451999227743 22.270643832501044 18.309839678191086
258 86 0 37.61167881427777 24.120119695735898 30.341534009031747
259 86 1 24.793241712024813 37.90271324185823 41.736381723230394
260 86 0 13.953775113576977 28.02176780705877 42.06088845124141
261 87 0 30.82746746707374 4.72954395280249 13.001230886390577
262 87 1 15.591556676100954 4.3914008500287265 20.696820916325702
263 87 0 9.350433449793654 18.81825601916407 15.724557388845632
264 88 0 36.25405841187943 11.308365424319543 34.274896170596264
265 88 1 45.392771868748746 19.367197159996138 12.756865523578305
266 88 0 25.81244909878113 22.294557587592486 6.17503515854054
267 89 0 45.348671134610505 20.196116704987382 29.59262223337045
268 89 1 39.81041704837274 35.25608342125478 46.79342999625657
269 89 0 26.440627239216965 41.1295412505765 41.92540204763359
270 90 0 16.997280614856308 25.100553743321942 8.24097773375006
271 90 1 41.979409477024824 6.6863209970246595 11.264769058033782
272 90 0 22.608916635365453 14.573243756793598 26.754217922162173
273 91 0 22.645319447887616 16.61638764932503 3.464866750731523
274 91 1 15.770446520764196 5.226332038600137 8.412614553875452
275 91 0 34.70715287068185 8.309302947054057 29.22853032396479
276 92 0 26.785529381081705 19.105977530925013 30.990522781060225
277 92 1 7.461702501695976 35.40222833307732 32.17057111577681
278 92 0 27.09802228544885 28.69549102911218 40.278543385244326
279 93 0 9.816336939155935 12.375893060611016 24.044599941175846
280 93 1 20.945277392263833 9.157671257351504 7.037974325153536
281 93 0 32.88050274350319 17.7644907541401 28.984009214548458
282 94 0 32.2644097581116 29.80924090743422 25.842669689708156
283 94 1 25.43105759927044 43.64115308108105 36.64432168869473
284 94 0 10.270964250815863 38.3744289113196 42.32126090457698
285 95 0 24.54827913061979 12.402533746080191 32.91437892798911
286 95 1 8.659291267218755 17.637398283791303 45.579420184244285
287 95 0 30.84843444047227 15.595944475386677 28.66437519398375
288 96 0 23.538388920478084 46.231351964088226 14.068033592386001
289 96 1 14.037344862747615 42.94717466728093 24.233480462389554
290 96 0 32.36132120328058 22.892443110935073 25.731632439518595
291 97 0 19.434676527717393 15.894946532666506 27.42844964007962
292 97 1 32.12142301559391 0.7090751205265278 3.655752067448888
293 97 0 31.627828084076477 28.232712671874825 22.822911157294747
294 98 0 24.4994881395559 38.82901223378064 38.59369164074508
295 98 1 17.254218699355906 38.663328882609704 36.516038517683356
296 98 0 11.019083980874806 41.48076362102105 27.715774585843864
297 99 0 26.92695481758883 23.368278465468705 33.84752694429416
298 99 1 31.10345215222773 24.955372636442764 42.04149164247314
299 99 0 36.38104446111515 27.506101354231824 18.949320051213167
300 100 0 25.659245924954465 27.72057931997215 24.380330696523735
301 100 1 3.960818039111386 42.49825805906831 44.160190189729796
302 100 0 5.022181904304334 27.262028008216525 23.235323196792095
303 101 0 20.939511376406728 29.956372745597655 7.194513965475333
304 101 1 41.17916652482868 8.924422749882284 2.316218903581374
305 101 0 48.14980899220568 18.47027173547896 30.93792275955345
306 102 0 33.28060493306894 19.08340645545497 37.489451445177586
307 102 1 26.19364960028659 24.451039970626443 44.56263052414389
308 102 0 27.081053710360965 34.745404294028184 39.577375176903914
309 103 0 18.834445145821242 24.306156597580625 13.286798058237466
310 103 1 43.121651555721996 3.5632238065643116 17.106825874722574
311 103 0 20.63465478487978 15.42805982267141 31.333291499407448
312 104 0 24.711383431281913 7.499258524915165 14.56324703921588
313 104 1 39.17571038565988 7.716603596900721 11.700400111358796
314 104 0 18.41145235434247 23.863193248527747 16.87909350426533
315 105 0 23.65429646405428 37.614932158531595 14.53551493271762
316 105 1 36.18741567015358 39.85613524599891 11.110134406382011
317 105 0 43.785741392249356 20.901911852598012 13.118042072387366
318 106 0 15.6257377258869 27.184626273397626 31.820040348007215
319 106 1 25.328083139083528 41.785660903013685 43.032204692119265
320 106 0 16.863156894786037 35.54910032801012 20.79485693352381
321 107 0 23.979019682097032 24.19630798720906 11.748633434094604
322 107 1 25.952751446047735 36.59299554113987 5.8936149653563135
323 107 0 36.824652159935326 36.729267376443055 7.507893944993159
324 108 0 32.31001893505484 25.896559338210288 36.12973859158284
325 108 1 10.903183733174673 26.772018608510148 16.137162728987423
326 108 0 13.328570263435859 28.446648191236886 33.94087250124948
327 109 0 42.44061472699973 31.701559783938446 33.92976836743594
328 109 1 45.58251047518446 24.7213570659686 42.92264957525371
329 109 0 32.38373322716685 22.092040515898844 30.17197601455186
330 110 0 9.815303060970766 24.096152791629944 8.24622565324527
331 110 1 23.37057294069023 35.99386810112554 3.1819100792224764
332 110 0 25.009716183429408 42.834988369371004 8.350359098175067
