ITEM: TIMESTEP
18
ITEM: NUMBER OF ATOMS
333
ITEM: BOX BOUNDS pp pp pp
0 50.0
0 50.0
0 50.0
ITEM: ATOMS id mol type x y z
0 0 0 27.33109450254125 30.15704360602843 31.080722065285517
1 0 1 27.110452853809182 22.12435513313705 32.645855606904696
2 0 0 24.06731019057362 35.12996080481494 41.692455197324904
3 1 0 22.76685958292915 42.0220870008161 17.398381493821617
4 1 1 27.556600637455823 44.95448850780581 5.097341812578288
5 1 0 14.29190461201745 19.78221010589515 25.948555515006127
6 2 0 39.1232896861902 35.29863798863099 44.7320142036385
7 2 1 39.065286525319046 23.8091802711102 38.46186187099033
8 2 0 19.982530021879285 28.43337686720364 20.400510150702207
9 3 0 18.31061791390038 14.318246304073522 17.484578035209307
10 3 1 13.610235025889327 36.73218580288493 22.567097598800377
11 3 0 21.814970803205284 18.570151580382465 32.304558744095175
12 4 0 32.031125285884215 25.50814186675263 36.92492480059107
13 4 1 34.02291803099432 17.929751879217328 22.77096910545929
14 4 0 34.550374496729276 9.05732046991445 28.896965719922253
15 5 0 26.32248497734582 13.840592051845523 15.304215990045703
16 5 1 16.373367463275656 18.784756549836672 27.362817172896186
17 5 0 19.50475424379329 36.51362815106518 14.60177173082776
18 6 0 19.87224394507571 18.731337949313396 23.486304064297183
19 6 1 48.53139041814027 41.4968480851409 7.958453612954833
20 6 0 18.469595433590605 17.1349921273053 23.50622302376287
21 7 0 20.74928152562918 8.057419401948543 27.98577462716117
22 7 1 39.257775415404545 6.104612864641133 40.830542298089505
23 7 0 19.63566630179732 30.601625928389115 30.94961540431511
24 8 0 4.714632499609286 32.630757629193866 45.978099819655064
25 8 1 3.2978140456940297 14.430374940687996 7.159279526281882
26 8 0 9.960346004218334 9.310658681248023 12.150065580925622
27 9 0 23.581377047166633 7.272479816080069 31.40225255702856
28 9 1 27.550237013203372 13.418444576838185 26.875241013059195
29 9 0 14.348052081633963 22.366419380490537 38.1853272807718
30 10 0 23.989604456152573 25.588810523334658 7.835417118374652
31 10 1 35.15367448791517 14.603832386094092 9.911272323594105
32 10 0 31.86817457908611 6.6508212895787775 28.17350940613514
33 11 0 15.218015546791612 39.628593131729936 13.162686555762265
34 11 1 35.63552398646301 47.286599689494366 12.868855301070813
35 11 0 31.812304682794107 37.02922670179131 22.051725945950075
36 12 0 24.33452744275273 43.37114019510618 17.589476624354923
37 12 1 42.769005793033536 38.29747948570408 9.629265194853035
38 12 0 41.554828079391164 27.173107816694593 30.210610155274427
39 13 0 31.956166298476383 36.35774849166808 39.86151956084088
40 13 1 35.98314262215161 25.445498612806084 47.04517536525654
41 13 0 33.780864317701884 22.853389869027307 37.229623897552635
42 14 0 6.394779830687629 21.387341349413674 28.368341962736405
43 14 1 13.97565630229675 30.112467963200544 21.900776761021103
44 14 0 9.78801373307355 21.21872995412803 25.74062748636547
45 15 0 30.669122938338212 25.903873313645605 37.44987453091362
46 15 1 32.186165883545065 21.749589368045044 44.52661331462173
47 15 0 23.957107278136224 21.745979799055995 44.61863204347729
48 16 0 42.4049302467577 35.4567407846878 23.296628499209817
49 16 1 44.847201302997846 35.89535835070234 47.733101773362925
50 16 0 23.407876666485087 40.211270253265496 25.187160772335208
51 17 0 35.9892952794033 14.059798262922243 34.30458716643717
52 17 1 46.508659436686045 23.355569784281883 24.3093513240572
53 17 0 20.181396718646084 30.784317668356074 22.77958794479822
54 18 0 38.836205174995186 25.662511882150945 36.0726954928435
55 18 1 42.47034554383212 1.8696289174267902 18.975176545906958
56 18 0 38.902155154079196 5.725369925180122 23.104146386801176
57 19 0 17.987566014280834 10.641788774339378 7.560703334629044
58 19 1 38.91622202684079 11.769586829817134 16.45932389753052
59 19 0 43.4321694735252 25.405948277652605 7.8899418367812455
60 20 0 9.772831557663205 37.17350561140748 29.62367776090141
61 20 1 12.176312669474086 45.89990068959564 30.798157459214288
62 20 0 20.73706224402706 36.3686406169584 34.145547801840074
63 21 0 12.72124777637913 31.16714327781698 20.83934199942624
64 21 1 9.849995030454895 45.61977461482952 35.68479503128107
65 21 0 18.278822834079495 26.005006225842312 22.570549407273603
66 22 0 15.757549441961979 20.4638662002049 13.03978599450524
67 22 1 33.16356775430609 18.56259115316115 9.781693158695099
68 22 0 14.89938265619361 9.787917746761138 23.695586751596892
69 23 0 33.45088711808011 20.21952189336734 40.08096650928705
70 23 1 47.92041387724943 10.999450711802057 33.56910612769126
71 23 0 27.94582677458667 5.166215547131319 36.03225866977343
72 24 0 26.27563367197765 24.24372156757527 35.01421785551058
73 24 1 40.200850357083745 31.354906431005265 42.40162434504094
74 24 0 25.027068772440952 36.335727865521505 23.3758909635304
75 25 0 47.42790451098936 34.93548003968541 11.265235543459015
76 25 1 46.43715269115878 36.234606294070964 12.373220890266579
77 25 0 25.7801461965569 30.279193987334132 5.975027191576291
78 26 0 15.616978527894267 18.227496897530944 22.900494129453335
79 26 1 23.387886947105596 13.703908770720476 28.651621384448227
80 26 0 35.043433196089104 9.131858465323551 27.166414787121294
81 27 0 15.479330684203584 24.938362766222838 14.891648298988601
82 27 1 27.62240178665555 10.060538858861008 8.568237661045575
83 27 0 25.860857940576974 14.397907286567051 30.712283876136805
84 28 0 24.514803705187454 33.31003650703298 38.51116214999912
85 28 1 6.152732167167803 27.527297946934006 29.19052437779424
86 28 0 30.14269486400501 20.047040827944084 19.248667702596343
87 29 0 16.795265182617232 16.533474915570608 33.07734827803281
88 29 1 32.605016429074965 37.31872752978289 15.017829421471287
89 29 0 30.848069919767514 17.76762997071877 20.270465937140827
90 30 0 48.53988432962958 30.695728896092188 29.420471141520537
91 30 1 48.07334705968196 13.118825277063236 46.2880585755542
92 30 0 47.48700131697807 28.54970631667226 37.856782956693095
93 31 0 19.138034322814217 6.256595478249164 9.967932384474599
94 31 1 30.21292152629581 2.258173768569632 17.62308331471105
95 31 0 24.6566205427689 32.91473468044342 25.03573970032763
96 32 0 17.71551976514318 35.47457429985478 14.798046918101903
97 32 1 7.765535033543919 40.123779913176946 9.597963263536048
98 32 0 17.991317088189238 23.429269126844396 6.834971440281284
99 33 0 43.781327183065955 44.435166873259355 35.224683620410524
100 33 1 44.34655442130201 38.290572388811555 17.867591745439885
101 33 0 25.684438721985874 16.994428414111326 41.60514647437114
102 34 0 4.14553682734697 17.269900431531987 24.49306611260922
103 34 1 0.8117264991936816 36.753187598690715 8.74934372607937
104 34 0 2.609913869616679 18.295826549477596 22.95724542405999
105 35 0 24.248720815551508 26.069485211697334 23.864469575502785
106 35 1 40.04722488240246 31.724449492623847 20.08939712389377
107 35 0 21.054173597790278 15.514562254460026 16.409183111706664
108 36 0 22.672178434338992 25.172415723392703 32.57360165492021
109 36 1 38.736955663689294 48.367822988723155 48.525748612384646
110 36 0 20.431873262222627 34.81704705850388 14.430551197272282
111 37 0 25.90444794007865 30.652950775480726 34.87012059168775
112 37 1 13.66437248390576 19.204358208416725 29.201134999080136
113 37 0 13.50409630719773 18.72406779775509 17.74813775696424
114 38 0 15.26793282446982 12.12899335172749 29.951746372767218
115 38 1 4.954080901828378 25.914051556630557 16.407385702937844
116 38 0 17.927335199698824 39.73777630474376 26.337684306326146
117 39 0 11.866491338838788 26.554880269764983 20.9660499723866
118 39 1 25.662818601242513 33.38791169307931 15.033149817390129
119 39 0 14.683610955359283 25.507118973003394 33.90121021646037
120 40 0 14.746345498655852 44.62454112505611 25.64473281392685
121 40 1 22.85659987939565 43.517880136582804 23.596707769565768
122 40 0 30.641827618328637 29.87312207459681 36.083637759469916
123 41 0 35.51728073006666 33.92119977144174 15.036627647111603
124 41 1 37.006338456956456 32.075698084416615 13.012784974574682
125 41 0 20.332761573647364 36.54858591469235 33.112394373447295
126 42 0 22.96326445512421 37.025522256638794 37.27920790416427
127 42 1 23.214090978433955 47.652653739607636 29.504774541901455
128 42 0 33.67258492379475 46.39294736387416 36.047817356977674
129 43 0 6.313111272453188 27.32607301719553 17.397420517880608
130 43 1 4.2565459672378605 20.94874713057354 13.996984370863592
131 43 0 26.174125137448595 9.828874660057679 33.469878721580294
132 44 0 14.226321687275764 18.924915429028612 19.661962223085588
133 44 1 9.370433654334992 20.687809817061407 45.22829582341239
134 44 0 6.777127575370673 36.170895022826336 44.40952992784528
135 45 0 25.879687623525395 10.55371632429182 7.3270990278714185
136 45 1 30.354999479267395 2.6208531707801686 1.197893387222366
137 45 0 27.34618656280488 22.002758097008513 2.4898086969150715
138 46 0 7.103847737250209 10.130766741172026 16.401326398369815
139 46 1 2.0950805143963587 7.066276301902673 30.045851267791843
140 46 0 28.774120279106523 31.372370935804312 24.65410171793708
141 47 0 25.040896046853984 20.11891892956279 30.542988358829536
142 47 1 47.53130034459599 4.2186963682211145 38.63584172070272
143 47 0 28.554021544787965 8.635003870627019 35.511224676054155
144 48 0 10.345594531969267 27.150372657517543 17.690398908730376
145 48 1 2.760666596633742 17.015844772750796 2.6116092679171397
146 48 0 23.78487605101774 19.78878416321476 13.073162402726254
147 49 0 30.153409375030346 35.123306546245374 20.40943611580886
148 49 1 13.447454392018717 18.981488620947626 40.05880554697503
149 49 0 33.90548356460732 35.804220567059545 43.16158585693297
150 50 0 11.404580911072975 48.59170385943163 12.314158901924669
151 50 1 6.455678118272501 46.646612568678755 12.377768293653252
152 50 0 32.9700813587724 31.91953147591561 29.004957521272807
153 51 0 33.56645705620428 23.28044955721495 16.07839506565446
154 51 1 18.920773286262914 36.3412200911303 12.172478063034271
155 51 0 12.741009535349823 28.28843700903132 13.954376960115637
156 52 0 44.06369719260872 19.987679899374243 32.50036818014178
157 52 1 46.996601908066935 31.340002533456126 42.70932538661484
158 52 0 47.02674945463563 35.19603020700304 38.08010324136438
159 53 0 29.88638827492901 35.107737724000025 16.514764586965992
160 53 1 5.113049531556958 15.32798963825149 8.556306451983723
161 53 0 14.078187421009181 10.07641621923204 21.080717849730785
162 54 0 19.655287104246735 36.10609511368938 40.62990644559588
163 54 1 14.595554657147321 32.08776480536982 29.817897115291288
164 54 0 34.66199682324168 21.88053538493502 28.431304848394085
165 55 0 13.2145621899069 23.62831983350561 18.631588519513183
166 55 1 12.592604713019096 25.271352088787793 16.163827721567603
167 55 0 16.13819698471975 25.85088221844783 28.65621144285745
168 56 0 11.935542589039722 32.182377001159836 34.249099222315984
169 56 1 5.542000039088664 13.08620734098677 22.282625882205707
170 56 0 5.2778136684289505 15.520059921329812 30.93931349411649
171 57 0 24.555450193363875 25.469727076164755 34.70782165246124
172 57 1 11.696209173679492 17.6922647072407 33.356569315692624
173 57 0 30.22406869953418 23.11166976702597 22.248947701283903
174 58 0 8.505198236748207 31.75881624367922 19.01994920842698
175 58 1 17.83773652577488 26.59741335546659 43.80011432529796
176 58 0 10.218285056006446 22.928348403276413 19.478915134402325
177 59 0 14.56744638704432 20.94146269823886 20.153658812615742
178 59 1 11.270258830845071 7.127301668070001 28.953940023054813
179 59 0 24.800556772219604 22.293497200553837 39.691208375981184
180 60 0 12.26287884066111 38.826388076149925 18.129651799531786
181 60 1 28.82703492495174 47.551136923269446 2.201261243738211
182 60 0 32.45486148493276 43.61531038398261 15.656822725557387
183 61 0 21.20094982933576 35.5521948249036 16.757960696328873
184 61 1 21.61248331977618 26.075877673856148 33.688581495978944
185 61 0 10.660669700443389 19.0837680541199 27.661074084064676
186 62 0 21.31088688369249 46.1997749975421 35.986540507392526
187 62 1 7.784967248120877 48.645127512006425 42.8338482429756
188 62 0 18.86295260736315 41.037407801075226 32.970540565065676
189 63 0 45.92385475653182 25.326347108241418 32.002085685133316
190 63 1 45.317311672052924 3.982355435589611 9.910799243493466
191 63 0 30.44925558627716 28.883387170681036 12.658788756064629
192 64 0 38.1503533517621 26.269113715995278 5.589587798339887
193 64 1 43.937319628591894 8.816969373257812 32.71871332102272
194 64 0 31.245016497932912 5.741127298053093 34.03824022250898
195 65 0 8.77296673048456 19.90674207535531 17.025690081519905
196 65 1 4.3548135165952155 43.98020251270894 35.85853042385038
197 65 0 27.686451462412982 38.20844545800628 30.586079825764397
198 66 0 18.562209087734406 37.09107387863804 30.76028430911959
199 66 1 22.95480045797115 19.63783743481401 47.821119128512656
200 66 0 14.641584767781094 17.603654911146005 39.84664081048299
201 67 0 7.633717712679572 22.994200098868273 24.574431244391846
202 67 1 14.02486858610242 12.652267506715663 25.46941502380032
203 67 0 16.679578902820094 18.63796215352073 20.350278506961743
204 68 0 35.575688751207444 16.259502270280887 16.372279944937407
205 68 1 18.0351704698571 29.47920154299213 31.85893449034111
206 68 0 18.9626201412659 41.531345399713835 23.661533977363725
207 69 0 41.06958757372727 36.74371300150708 39.49975575037389
208 69 1 48.14370331206321 43.476439727261685 37.503803822433255
209 69 0 40.530541509889225 28.155390013093804 20.12742994057111
210 70 0 14.31199242217703 26.657361943611246 38.911156405966636
211 70 1 25.0900062435528 37.299063665469376 47.07651207381065
212 70 0 14.088716829497264 18.958591848513773 36.99603285308977
213 71 0 41.98859665843302 33.29640975445547 35.353712634859825
214 71 1 48.06615900654018 20.965525157458867 19.75787474505606
215 71 0 24.6667091557584 28.512404030509206 27.194914838385
216 72 0 37.512476854526476 7.722372549586271 18.3408983001583
217 72 1 29.748519411051998 11.669873650180984 9.23429532243036
218 72 0 37.443058566455264 6.576008702586829 17.54296151558604
219 73 0 12.114035818536657 30.989140628350203 31.238350435775377
220 73 1 20.60230807989731 41.778999122729246 7.318343595461808
221 73 0 16.57010048644476 29.28989163625081 14.510399010171874
222 74 0 28.935109155849602 24.28445532497923 22.971662314114166
223 74 1 22.57246232665208 33.76810721261744 5.6488483481716925
224 74 0 27.256725428884778 16.362022833683334 26.04031666610826
225 75 0 21.622424657805098 29.625306148683453 24.25539731953046
226 75 1 6.471790440748835 20.186735498246474 20.850205622765525
227 75 0 11.933413538505812 9.229323511485862 30.14904498949676
228 76 0 16.39241475961244 37.300522378500474 22.921669628141338
229 76 1 31.369021172198266 46.323838080055815 6.476755364287588
230 76 0 38.380062697003666 20.607485467097174 17.996336242200815
231 77 0 16.060399255638885 16.029797804139907 21.28175232212183
232 77 1 10.622850063769494 2.038122627526404 25.341368706491163
233 77 0 28.77887420853099 11.527753471023466 17.174498921276786
234 78 0 4.53118870679686 7.69151771301276 8.21051431476939
235 78 1 6.141213529873073 12.084782864224124 4.382613549655743
236 78 0 4.133247573055916 30.43498681728969 6.312156168686136
237 79 0 19.762999237011535 26.94499465084324 22.446876089650903
238 79 1 8.650724673407233 10.892125312991707 22.11478484080499
239 79 0 18.91679097024607 14.60216575538217 31.997713247496193
240 80 0 40.480153411114266 35.4760283287212 18.99704097445177
241 80 1 44.342262245203266 21.057978879857924 42.68684004482474
242 80 0 38.68487602692991 37.36949312091301 40.13508625218362
243 81 0 18.32398999472536 20.353717409021392 21.169701402189567
244 81 1 18.632036477418925 13.355009438466062 24.68902925105659
245 81 0 27.766432446084984 13.593120342092018 25.715436619776206
246 82 0 23.364987878188675 4.798013382748495 5.279850680003566
247 82 1 46.999302479379736 0.4894414150972646 9.652640679457312
248 82 0 37.7421978365178 2.5219815784091386 29.57642349567891
249 83 0 27.433156323981564 39.66769822549415 34.037007847743595
250 83 1 15.729393993942278 27.557391973274335 45.61135528434287
251 83 0 6.24773857299104 2.8918413286947446 7.711242648266042
252 84 0 17.527335887706304 17.599193814522316 16.86662061856365
253 84 1 16.138866591345316 41.19065471338881 23.19012157083265
254 84 0 19.65618983506475 27.251121093994595 35.31500950338193
255 85 0 47.4544438231733 45.426573832012394 24.65165592821469
256 85 1 47.361369320315426 39.10571565728062 32.76696048979066
257 85 0 27.17793232884226 22.803094088137918 18.767558137324322
258 86 0 37.21171503686225 24.54963310166754 30.696847645305247
259 86 1 24.79757743252904 37.85707122747954 41.71480897474196
260 86 0 14.284363014113948 28.322496708474166 42.050718918752395
261 87 0 30.35850003424678 4.719496508657318 13.237902850946739
262 87 1 15.608866518354901 4.41971436902799 20.672498644500305
263 87 0 9.542412367446664 18.37529099067395 15.877093297540714
264 88 0 36.53994810565616 11.560989477190637 33.600391626332964
265 88 1 45.33685512153012 19.35711146446042 12.786192739289472
266 88 0 26.42123050192303 22.2033008374078 6.380302181519865
267 89 0 45.17513363833846 20.667242201446133 30.130428485854214
268 89 1 39.79570674504694 35.23788492053138 46.75053975023559
269 89 0 26.849049275925243 40.94985783900284 42.07416344548005
270 90 0 17.7862085836894 24.518873119770173 8.336927850224466
271 90 1 41.892089878403915 6.738138763262817 11.289180877526105
272 90 0 23.216508726824912 14.326067196137908 26.26777182652874
273 91 0 22.436810929356522 16.270240801793797 3.615776246748428
274 91 1 15.820743123358803 5.2540402219628755 8.444165233411839
275 91 0 34.1085509232071 8.228792925695906 28.56996238060152
276 92 0 26.17991245168522 19.616946252566898 31.027731881395805
277 92 1 7.537810093662503 35.35724078927114 32.18405589996283
278 92 0 26.48591471167874 28.904319638003194 40.02557754807602
279 93 0 10.162543984397582 12.276087902368063 23.516569143654742
280 93 1 20.9470944067662 9.180805431447528 7.114044578761057
281 93 0 32.505229472149225 17.494155539799543 28.29491984232729
282 94 0 32.052591479143146 30.237094515809517 26.1770363791205
283 94 1 25.415135417945212 43.6043071318429 36.63435625894642
284 94 0 10.737538655946171 38.53611280572187 42.146337485443965
285 95 0 24.05453470618918 12.565308929462006 33.30795620544173
286 95 1 8.733792117670989 17.62323409829948 45.52155511915679
287 95 0 30.150232658703306 15.660101370029144 29.19661191138771
288 96 0 23.249889221663977 46.130981303363484 14.377224665734088
289 96 1 14.09143848210148 42.91397328883494 24.21708912432442
290 96 0 31.785205466555357 23.52331552457568 25.684257020081933
291 97 0 19.83545114902625 15.415923993852891 26.677944911366044
292 97 1 32.0954186865712 0.7934688975791461 3.7405601170612655
293 97 0 31.643131530844364 27.361427764214444 22.21649995308704
294 98 0 24.293218879572827 38.82439110822515 38.53431325719679
295 98 1 17.25548744625353 38.66886354271179 36.50335964153202
296 98 0 11.205051005209105 41.39683107847011 27.978012760937276
297 99 0 27.049162413189777 23.41441923059266 34.08633623535933
298 99 1 31.106142560421052 24.957462180105473 41.981398416214304
299 99 0 36.215822863979405 27.426256902310193 19.671675966017265
300 100 0 24.97249033262541 28.187919252090666 25.00584942507975
301 100 1 4.005787994529839 42.43917736664114 44.08006966577264
302 100 0 4.9894169542992275 27.73997750267279 23.891734170240408
303 101 0 21.578180716756496 29.29314194254255 7.041372698744579
304 101 1 41.153046980701866 8.984689219147093 2.3822980246882905
305 101 0 47.92905236767801 18.169238818771078 30.033796895838027
306 102 0 33.06909702009557 19.243846641788423 37.70045657745477
307 102 1 26.208515337286382 24.46024129062745 44.54014461160404
308 102 0 27.054701917784286 34.43774697159642 39.72614777844597
309 103 0 19.602074197155698 23.650355569299048 13.407997660865467
310 103 1 43.02933423399129 3.6273596395223886 17.12749865058768
311 103 0 21.343008561265247 15.054512292950731 30.884656680397175
312 104 0 25.151698890466044 7.506246226887124 14.476121945406184
313 104 1 39.1074521310035 7.747877401635814 11.716010041914661
314 104 0 19.06384210277602 23.355612340332176 16.716367072005646
315 105 0 24.033350162925444 37.682218528109544 14.432017214332834
316 105 1 36.17850324156855 39.81511686124422 11.120497611465893
317 105 0 43.549285485833096 21.490927552875352 13.055724381084227
318 106 0 15.92724087562305 27.63851521499517 32.16816583322968
319 106 1 25.292706553489158 41.74508983353046 42.966897623439685
320 106 0 17.12812653460586 35.74413401387653 21.49127286019614
321 107 0 24.039158780728524 24.572466988235938 11.57101019299991
322 107 1 25.969217174706028 36.56975814363579 5.9077120099899805
323 107 0 36.501114419141814 36.72493085763318 7.459993710900896
324 108 0 31.635030265834047 25.9241914542051 35.49970850212969
325 108 1 10.951529881163541 26.77215932632173 16.210854975074668
326 108 0 13.254246822657109 28.394922007677486 33.39184225723023
327 109 0 42.53443138968266 31.492478553243245 34.19880630222127
328 109 1 45.55115080126008 24.729337242188056 42.881211644670884
329 109 0 32.79168579762793 22.17347518815102 30.565947644559394
330 110 0 10.234646392507095 24.464349215886585 8.089696950031847
331 110 1 23.347355087586937 35.983278300857066 3.2010596790146337
332 110 0 24.961816999630326 42.63618086373231 8.200508801172266
