ITEM: TIMESTEP
21
ITEM: NUMBER OF ATOMS
333
ITEM: BOX BOUNDS pp pp pp
0 50.0
0 50.0
0 50.0
ITEM: ATOMS id mol type x y z
0 0 0 27.312380789742164 29.49885397861736 31.211129556481982
1 0 1 27.09493842091702 22.236689341286617 32.68732327953329
2 0 0 24.334263892418434 33.99087591167418 40.89866679626338
3 1 0 23.178520734188226 42.27017282692464 16.33809326836131
4 1 1 27.455713889964187 44.79627391521347 5.281672899768606
5 1 0 15.49430102406137 22.065463769088534 24.059582465093172
6 2 0 39.113759592643824 34.306634843884154 44.185781065674135
7 2 1 38.95863888503326 23.89699692479103 38.394406834715944
8 2 0 21.698421156094465 28.020308539308957 22.026033963667054
9 3 0 17.892164972230123 16.318695174481107 17.941526527111368
10 3 1 13.682068680305445 36.50621247767387 22.592914457623326
11 3 0 21.084048628637984 20.18523745899718 31.43453179508129
12 4 0 32.20599365738703 24.841266254604918 35.68450729840587
13 4 1 34.014817776537846 17.924209484197437 22.880830921731132
14 4 0 34.50511465462706 9.812871031264635 28.379598272006273
15 5 0 25.449663318659734 14.278906475380984 16.359974674684963
16 5 1 16.445218672731546 18.85628999863383 27.225868785867338
17 5 0 19.227764646069698 34.93082304702148 15.737359127358696
18 6 0 22.473034993566962 20.797180654001878 22.077002777730115
19 6 1 48.19809208981935 41.2293529884281 8.1348352660071
20 6 0 21.20159017162487 19.34908296468547 22.093408702817598
21 7 0 22.39724875228132 7.889039467903569 29.13036830590984
22 7 1 39.04401520618839 6.253741331438615 40.70328408589509
23 7 0 21.40785140478277 28.38394302802271 31.841159283659227
24 8 0 4.587054678772678 30.969951870529794 42.439543407402034
25 8 1 3.34207469224134 14.507636448633368 7.4070319663845945
26 8 0 9.40060916702736 9.745291550413734 11.739476048008296
27 9 0 23.906264873165004 7.786362329673194 31.012864587026737
28 9 1 27.419684534665663 13.48170347411181 26.596104930800326
29 9 0 15.51666274840378 21.57344703175124 37.1656377567179
30 10 0 24.966893561362827 24.624539040056767 8.021622600261132
31 10 1 35.07452073375436 14.619773100210077 10.00106558637768
32 10 0 32.15744196582588 7.360044547650312 26.55063599701068
33 11 0 17.037574678703436 40.308995616062916 13.138634473444286
34 11 1 35.501312029477106 47.18842116512501 12.920277710574826
35 11 0 32.14013896723028 37.91968844442052 21.253024715736082
36 12 0 25.973878086698424 42.91717531226547 16.88643904965436
37 12 1 42.66003515225652 38.26358605522764 9.788142075576525
38 12 0 41.65896927494357 28.169384515838974 28.371586361001487
39 13 0 32.304881222010536 35.410966469891015 40.48232122463674
40 13 1 35.94975354163244 25.49081824415876 46.95455314435635
41 13 0 33.96639103624064 23.07506980695761 38.058794982912644
42 14 0 7.04942122307179 22.14019683293669 27.80987836735435
43 14 1 13.9126449209184 30.018441656770342 21.955938526601393
44 14 0 10.14148340767014 21.970367160882542 25.416452262514657
45 15 0 30.792791085505247 25.561036975109726 38.03390430724178
46 15 1 32.13608876826838 21.770943888903275 44.49067056913041
47 15 0 24.63468938837902 21.747039566802208 44.60973926144769
48 16 0 42.61853041294953 35.49710673503493 25.4809519506968
49 16 1 44.71273679753669 35.917232451528285 47.46955007251243
50 16 0 25.345752831672314 39.82092929422089 27.21968120399889
51 17 0 36.909353078637764 14.880201895322568 33.42400178375131
52 17 1 46.30321897845966 23.346223434607296 24.35563412763399
53 17 0 22.548376086624977 30.11347250711435 22.91967957453287
54 18 0 39.16340586897588 23.516356383099062 34.5306952300443
55 18 1 42.43235165683249 2.0232377447048364 19.091296320266817
56 18 0 39.185168396529455 5.422757230457504 22.778702216378612
57 19 0 19.85842361458689 10.745818904762245 8.353659210979052
58 19 1 38.82442099050881 11.838034375338916 16.362809864140292
59 19 0 43.03012081912465 24.20677600605664 8.641228195851598
60 20 0 9.975037060165642 37.89957718423948 29.72231762763265
61 20 1 12.20998609025741 45.80310812757356 30.81010167056038
62 20 0 19.99609957868073 37.19125839514207 33.85577112664992
63 21 0 12.467834839339636 32.448279174782726 22.15704727634579
64 21 1 9.91304161586375 45.429966636145096 35.5291531485131
65 21 0 17.523574873687526 27.760730670402868 23.74320056705366
66 22 0 17.288823266786302 20.294068657829378 12.755629602242841
67 22 1 32.9658150025777 18.52403075353837 9.877340788477003
68 22 0 16.532113742602956 10.574763179599614 22.449374397195022
69 23 0 34.72496879728781 19.403292637760064 39.5060403686572
70 23 1 47.7299062809859 11.017887602432424 33.61864332903813
71 23 0 29.719935236609476 5.687492667945212 35.81460363170322
72 24 0 27.498467831905497 24.871195609786078 35.66035793422881
73 24 1 40.0395986623396 31.343706187534465 42.254733079492716
74 24 0 26.384253149378136 35.88745208019642 25.079999201893298
75 25 0 47.37853103265444 34.99757416689496 11.318088489421726
76 25 1 46.324967088340266 36.19750244332202 12.334225655987343
77 25 0 27.624533907012427 30.810728345287348 6.54611857696642
78 26 0 16.279386291794925 17.84242386137731 23.38833586492663
79 26 1 23.40888393790291 13.704071288706334 28.61544113509146
80 26 0 34.03722631105272 9.52690644047167 27.293045321202285
81 27 0 16.557654451269325 23.61774452287601 14.335229286023065
82 27 1 27.545680716196898 10.167291944972568 8.726616775964358
83 27 0 26.015290072297375 14.014129443089887 28.736132551627847
84 28 0 22.885008170262623 32.79311174963034 37.678495483929595
85 28 1 6.389191005929077 27.517462021971873 29.186529066103752
86 28 0 27.989145694112867 20.721338364524463 20.14526072119646
87 29 0 18.224799967093904 18.408702617442007 31.445179355684395
88 29 1 32.50615257057426 37.09327769567328 15.148734777835037
89 29 0 31.00034168383516 19.49959968869829 19.808164136461052
90 30 0 48.497958515569316 29.124686469939544 30.929562824652038
91 30 1 48.07273116395471 13.301772487290357 46.14753051108865
92 30 0 47.53878263492754 27.193592318566182 38.59614081099439
93 31 0 20.098908094825532 5.916500442394919 10.634781963066978
94 31 1 30.121613093403983 2.4527263944913704 17.623437225486363
95 31 0 25.156683174009125 30.141985395497706 24.363231992965567
96 32 0 16.863433604110256 35.870085719637736 14.350962278482559
97 32 1 7.875360981350673 40.00653941322802 9.610510310297734
98 32 0 17.08618096280396 24.90959797069437 7.081314936183146
99 33 0 43.82673735401221 43.88680615792667 33.69615764092739
100 33 1 44.237759838890476 38.203830056705044 18.097643379775242
101 33 0 27.37974029802954 18.930674142259527 39.45286063980843
102 34 0 3.846931838206127 19.013436259257652 23.08404352675346
103 34 1 0.8403931033138183 36.5413543334813 8.916578924048814
104 34 0 2.4498450880390807 19.94162039956897 21.69050688389374
105 35 0 25.635113512262357 26.56354895382464 23.531280473594446
106 35 1 39.85430904765926 31.60276115789216 20.08953012306801
107 35 0 22.754426941185823 16.967510394680343 16.74024433509209
108 36 0 24.120023461869863 27.26861946788192 34.00947025467213
109 36 1 38.54241350927907 48.16005896124411 48.242208098262445
110 36 0 22.095168067790738 36.04549974331272 17.53212587640724
111 37 0 24.826129882344983 29.643040209611716 34.36814251809643
112 37 1 13.748602253787272 19.26564684709187 29.180421303977866
113 37 0 13.521981965432518 18.767830922156477 18.72909101164311
114 38 0 14.351257413955683 13.361726932420607 28.746232870610626
115 38 1 5.083566584060105 25.91428811245595 16.537886378885872
116 38 0 16.77409914451164 38.502938251483044 25.456316952217
117 39 0 13.075478091170355 27.153098070015833 20.449411312018245
118 39 1 25.52610869730071 33.30658609321594 15.170783424289617
119 39 0 15.661972327887543 26.210096712807427 32.21571238427837
120 40 0 15.418609163325208 44.53000597192838 25.478217241095933
121 40 1 22.857911721990924 43.44803590537166 23.67639784919052
122 40 0 29.94858973182431 31.085180601487565 34.97511595360572
123 41 0 35.61122697815833 33.80702176987161 14.909299889905697
124 41 1 36.90680715893801 32.10794669880711 13.133645475405604
125 41 0 21.83131951971908 36.14677414939781 31.30594691308334
126 42 0 22.98723607901609 37.944070566072526 36.60845737524013
127 42 1 23.268834258656828 47.58861577599517 29.581774330459996
128 42 0 32.77272164440814 46.499011856706005 35.48657327152031
129 43 0 6.148783539830703 26.803431686833992 17.124040662092842
130 43 1 4.39052836955011 20.91837859245347 14.123996192619417
131 43 0 24.192847040704265 10.835732790227361 31.709944282938878
132 44 0 13.789442060313158 19.087008543437513 21.95865725728406
133 44 1 9.383463484247658 20.762409585971188 45.0806580858179
134 44 0 7.005401304142194 34.81452694427147 44.47511001645533
135 45 0 26.2596904116917 9.883090139909513 6.806136677109714
136 45 1 30.314628804624217 2.770115612098179 1.2375305659507312
137 45 0 27.61210699622264 20.285216976369302 2.3765461213750387
138 46 0 6.673381248728908 9.869304692577227 17.59005580277206
139 46 1 2.273343762117768 7.220536978821902 29.941157012099026
140 46 0 26.352371995593757 29.16566116668565 25.140481095778547
141 47 0 7.771455236526973 37.20626932790608 41.390437108698606
142 47 1 47.24034620471645 4.397046230854158 38.596580506087705
143 47 0 30.230858136241732 8.248590234710711 35.786651971839326
144 48 0 9.850692913661414 26.284157055365682 16.28351952051051
145 48 1 2.9201668608880635 17.087382728853367 2.7531480331219873
146 48 0 21.90551245632343 19.543092695728053 12.140695315608305
147 49 0 28.649504634105313 33.66945621976804 22.18502919457953
148 49 1 13.65616723344772 19.166613812979676 39.96556989872304
149 49 0 32.070296329046656 34.29572898370782 42.877773490374686
150 50 0 11.032568934998922 48.44089750999875 12.322039267473427
151 50 1 6.629142112405481 46.57254345573882 12.471515792577181
152 50 0 30.566668127958337 33.25545011098656 27.49711965493903
153 51 0 32.264577791447884 24.43836193350572 15.73197070380399
154 51 1 18.969270403242767 36.226468701825304 12.203491672194373
155 51 0 13.266937721559975 28.96655844930384 13.804546485052207
156 52 0 44.32036296861973 20.98191111245907 33.39281570299536
157 52 1 46.98074432640868 31.296893246379405 42.63098921314827
158 52 0 47.023819769781134 34.89155230489558 38.441030192229526
159 53 0 27.64571404181394 33.31572670491792 15.797258067468793
160 53 1 5.30058712331154 15.410268176442184 8.668801097928785
161 53 0 13.297370529650275 10.541992517767072 19.983529840167755
162 54 0 19.224025561542618 35.75753777483737 39.69809792317767
163 54 1 14.734424515040219 32.05252269567211 29.868235304034066
164 54 0 32.87121456923842 22.79299521374723 28.557654682577972
165 55 0 13.174907944471327 23.729891742646217 18.47537606310215
166 55 1 12.608189398929229 25.27384454594046 16.241442191863168
167 55 0 15.831813420640765 25.80095993338424 27.577566356477146
168 56 0 11.36361186707288 30.474851377762306 33.18066146162756
169 56 1 5.576282379964224 13.205344273093743 22.394276040189858
170 56 0 5.3011219335628725 15.321457957344439 30.22135576863342
171 57 0 23.437028400196144 24.791948940138777 34.58732361726282
172 57 1 11.869265337178085 17.764738874018946 33.30213031153159
173 57 0 28.573579249753866 22.62983143738736 23.24053154014773
174 58 0 9.342723351554593 31.29371859968386 21.24281993311751
175 58 1 17.74262579307597 26.605884157142327 43.52522007497782
176 58 0 10.900102502680422 23.25899947291031 21.65649795422003
177 59 0 14.280829438096301 19.730783188476504 20.929756228802905
178 59 1 11.36370093550232 7.287477995409331 28.965541710676003
179 59 0 23.59209709431854 20.941336402797653 38.72948989789538
180 60 0 13.748312962788633 39.60742398079255 16.70522793217483
181 60 1 28.75417928996243 47.48103761447841 2.363267964885977
182 60 0 32.135131020546886 43.955949794833025 14.489019291939316
183 61 0 21.234823294600627 34.71042017973985 18.257522596681714
184 61 1 21.549440989650584 26.09017746289755 33.5615185983073
185 61 0 11.350005182191254 19.681808128246594 28.045984047769192
186 62 0 20.131074159293263 46.41189430358268 36.58290850553013
187 62 1 7.919363178679486 48.59012358378681 42.74249993209948
188 62 0 17.892432874295245 41.70536043853239 33.835747225338785
189 63 0 45.865360116469425 23.404028187572013 30.006745719799937
190 63 1 45.23714698363913 4.242541833124974 10.050654659786877
191 63 0 31.790399099417403 26.642788765428264 12.416422576006132
192 64 0 38.67128015861466 24.68822891600685 8.046223948009867
193 64 1 43.836265731890705 8.898893762952053 32.57270547782935
194 64 0 32.340883891258386 6.011186401659493 33.91771048548988
195 65 0 8.379461392237237 22.080859821879166 18.72632622943828
196 65 1 4.510035058412221 43.81235934929638 35.72299600149564
197 65 0 25.596388818078122 38.719812604935214 31.053988563499516
198 66 0 18.954119253485008 35.52575926280946 32.288097243642675
199 66 1 22.885899087218977 19.72454081997993 47.6832182551209
200 66 0 15.351777669114107 17.782033102057884 40.52525814770505
201 67 0 8.183306245498985 22.10690442402928 24.650310833134732
202 67 1 14.00427094781604 12.73844644118172 25.43830420179689
203 67 0 16.45949692000897 18.146385876743462 20.772182271409104
204 68 0 33.9982878047742 17.451387340880693 17.763213505026055
205 68 1 18.13854783876151 29.47054460065356 31.72758830768568
206 68 0 18.886002596725266 40.47796125573073 24.37217357385238
207 69 0 41.66383054386403 37.3074987716895 39.327787532755515
208 69 1 48.06403092325383 43.35550325677463 37.41721867087468
209 69 0 41.211064108651016 29.52658324466767 21.684773821757123
210 70 0 15.258227230324486 27.590022254864635 39.6276422627832
211 70 1 24.969502208894358 37.13836783849048 46.97548263543603
212 70 0 15.070554587095893 20.597053539602737 37.89604744254921
213 71 0 42.52356488681806 32.20136913882146 33.96821751953944
214 71 1 47.90151531698275 21.07612553450995 19.885961922101778
215 71 0 26.766052952561306 27.837825047751668 26.530987812187927
216 72 0 36.845369476945486 8.061510844091211 17.5584236297989
217 72 1 29.831153471633503 11.621129456877547 9.327665029652033
218 72 0 36.78278319877237 7.013121398929436 16.83001331753644
219 73 0 12.877282114438083 31.957515776132745 29.086777350976305
220 73 1 20.532744752999868 41.65053075110746 7.491690652819708
221 73 0 16.919936696615192 30.377030827129815 13.88844028352263
222 74 0 28.370407646014296 25.123754177229106 21.435977329005844
223 74 1 22.633999042879385 33.61791298183801 5.859236980930142
224 74 0 26.836778516517647 17.92580210225566 24.20978402064345
225 75 0 20.285247862715835 28.78890086708094 23.956752714588117
226 75 1 6.58499180768166 20.17898684230028 20.919642894198716
227 75 0 11.45937150218948 10.189729694306587 29.33671147728416
228 76 0 17.735089718393812 38.102107383009454 21.452092239257034
229 76 1 31.32486068191345 46.12892540766626 6.633286596929094
230 76 0 37.74407798479814 22.92452372330266 16.96147719584526
231 77 0 15.58886985281455 14.807924314990105 21.63502727464352
232 77 1 10.753464126701388 2.1671916545442422 25.273816016417143
233 77 0 27.160572645094128 10.684507379373722 17.902061475199645
234 78 0 4.657114528045851 8.040546246111992 7.910474106870718
235 78 1 6.1222686072504615 12.164464334859131 4.411976348896379
236 78 0 4.31049902099748 28.810984092461126 6.142323468191135
237 79 0 18.779962636811913 25.522321570200397 22.419709311286667
238 79 1 8.767940146349446 11.001020036712756 22.170319557235963
239 79 0 18.02445273620209 14.28244096365668 31.13630445625892
240 80 0 40.82665819721565 34.181317095963585 21.130187694488068
241 80 1 44.289503120262644 21.22851333428528 42.53981790965041
242 80 0 39.182487553468455 35.93555058027997 40.35429098122197
243 81 0 18.35110948447525 19.78089027246602 21.45830042870857
244 81 1 18.68039384311597 13.389883930669559 24.69324099263575
245 81 0 27.561078258880215 12.874877928600556 31.234628097491477
246 82 0 25.48044264786007 4.412446080565379 5.676518077290658
247 82 1 46.81583515346176 0.5247992930364466 9.739002581714368
248 82 0 38.56227484646371 2.3417063771951376 27.79795409712888
249 83 0 26.390470174125277 38.58509969841684 35.05644125946382
250 83 1 15.740405224135609 27.483994126849694 45.33133264666421
251 83 0 7.116676696705972 5.147719754508387 11.170035634395315
252 84 0 17.40375663034735 19.70981470893502 17.436168799953247
253 84 1 16.165840617728804 40.98215959779409 23.221774597504634
254 84 0 19.34522835261766 28.47911005167691 34.24048188281601
255 85 0 47.441925767810645 44.88832473563416 25.334666692885406
256 85 1 47.24832052831213 39.04732096298887 32.64543645774402
257 85 0 28.999229999977864 24.275650586125483 20.028922401972462
258 86 0 36.10358980644306 25.73259045349846 31.67822413089469
259 86 1 24.80951068812674 37.73150310538718 41.655457104094225
260 86 0 15.20154061435281 29.148529676152627 42.01891121527313
261 87 0 29.06126944672335 4.6964361079317944 13.889931028141916
262 87 1 15.656490268363283 4.497611617257141 20.605582203989297
263 87 0 10.077668874113465 17.15199402256916 16.295720703854997
264 88 0 37.32291509697754 12.259640367476752 31.73541260934425
265 88 1 45.18303284511429 19.329365616701356 12.866872384549918
266 88 0 28.099425442478303 21.948575653918766 6.954401858813956
267 89 0 44.69146243693196 21.970313264774955 31.614119450725926
268 89 1 39.75523874049211 35.18781504545519 46.63255039845116
269 89 0 27.980122221946814 40.4479424150744 42.47833140496591
270 90 0 19.958187852107756 22.915274665231394 8.607184073974842
271 90 1 41.65187284111261 6.880681187994316 11.356327575606933
272 90 0 24.885715190073903 13.6498293059446 24.923495993886267
273 91 0 21.867252581691904 15.315394018275903 4.039349306382702
274 91 1 15.959109519335257 5.330286750114171 8.530970407511495
275 91 0 32.46419321099567 7.963620272076633 26.75748477170176
276 92 0 43.805319688522225 2.373553771826076 21.29488773601079
277 92 1 7.806865598608468 35.17717041128102 32.18019422852337
278 92 0 24.803487759701177 29.4742870789147 39.32548695015872
279 93 0 11.122547519626684 12.003377328206355 22.065855173216423
280 93 1 20.952099790378796 9.244441718560504 7.323290655341974
281 93 0 31.465161214736145 16.748698557917724 26.397695579132613
282 94 0 31.4626137239059 31.417037786189862 27.102367866834804
283 94 1 25.371329507448817 43.502934497436556 36.606938614595116
284 94 0 12.028414255525727 38.97813932280772 41.65967657407741
285 95 0 22.698797471324408 13.01402690403054 34.38890909756683
286 95 1 8.93869872199177 17.584268457187438 45.36240179993058
287 95 0 28.227581184482194 15.835509382550656 30.662057090987705
288 96 0 22.459277542065585 45.847229069263996 15.231488145998606
289 96 1 14.240277809048065 42.822585868264824 24.17199223040031
290 96 0 30.197318654891596 25.266632050518126 25.55007031962638
291 97 0 20.941963764524964 14.102658807510364 24.61214272715404
292 97 1 32.02389629593644 1.0255933896230611 3.9738246001178674
293 97 0 31.681021278547647 24.960672099264617 20.5501303927944
294 98 0 23.72140112767752 38.81245114554227 38.36764411376188
295 98 1 17.25898822184966 38.68409641906036 36.468466874885884
296 98 0 11.72084898642942 41.165046091575114 28.70296253426753
297 99 0 27.387882983396004 23.543269079667358 34.73879022988698
298 99 1 31.11357083267067 24.963220341820136 41.81609249567421
299 99 0 35.758244611798915 27.205264676337798 21.663929251567964
300 100 0 23.076391633846534 29.473256742716014 26.72604808861191
301 100 1 4.129484832436285 42.27667570318673 43.85969806333995
302 100 0 4.906361767736835 29.054662309495523 25.697483589463623
303 101 0 23.3443290846633 27.464835239019727 6.628280726938071
304 101 1 41.08119988049334 9.150465810081842 2.5640646232604882
305 101 0 47.31245814646234 17.345120315629014 27.538619173985087
306 102 0 32.48522442058485 19.690099930437555 38.281686823608176
307 102 1 26.249419161369843 24.485559588555923 44.478273435323636
308 102 0 26.984090811675554 33.58641665420575 40.13486507232842
309 103 0 21.714103652274915 21.843439982668894 13.747604068484303
310 103 1 42.775460993292015 3.803753621100217 17.18436901397011
311 103 0 23.298401048572877 14.017567633277922 29.609114750083656
312 104 0 26.360381132966012 7.530829107694872 14.237311666159583
313 104 1 38.919746788206126 7.833901129253449 11.758940804258055
314 104 0 20.860665940304948 21.953850355281386 16.26793833396707
315 105 0 25.082725927649367 37.86194074096685 14.146810838147031
316 105 1 36.15398479844345 39.70226112969593 11.149009747161603
317 105 0 42.892203674592764 23.116916564922196 12.884724764409214
318 106 0 16.756941086954235 28.889698926860145 33.12191763670669
319 106 1 25.195328996221473 41.633543572773114 42.78733068737221
320 106 0 17.856556186692778 36.27780286068139 23.41057352253197
321 107 0 24.208619833078412 25.61136824260908 11.080959318274306
322 107 1 26.01452102596507 36.50581968755022 5.946500406238703
323 107 0 35.60695008675901 36.70911554889154 7.329515267973591
324 108 0 29.771876750143377 26.00072341116282 33.76601580600114
325 108 1 11.075287385656415 26.76857773197789 16.41775055086702
326 108 0 13.056220691988766 28.251494362313768 31.88290320379954
327 109 0 42.78925439502214 30.91444488950326 34.937496160829156
328 109 1 45.46488071131311 24.75127720437688 42.767226907249274
329 109 0 33.917225250439735 22.400567961763574 31.651022643941637
330 110 0 11.393303121339274 25.48335630949962 7.6589913924235
331 110 1 23.28346672379979 35.95414988634602 3.253755146454702
332 110 0 24.825284238131367 42.083185204254725 7.788020836621822
