ITEM: TIMESTEP
35
ITEM: NUMBER OF ATOMS
333
ITEM: BOX BOUNDS pp pp pp
0 50.0
0 50.0
0 50.0
ITEM: ATOMS id mol type x y z
0 0 0 27.232655722482967 27.21339884918571 31.714153660510803
1 0 1 27.040224110901878 22.631434883107545 32.83354791021438
2 0 0 25.288276874002953 29.96010361318831 38.05787871700252
3 1 0 24.579116938346438 43.0309172830815 12.666091248226332
4 1 1 27.101255158730897 44.24000465196669 5.928987374519178
5 1 0 19.764499142757177 30.204613092648493 17.374729563694526
6 2 0 42.501880345279545 28.43060734007255 37.20013814687118
7 2 1 38.61230279573345 24.183795816873527 38.11471450660052
8 2 0 27.829694269369675 26.599705474144184 27.86029915775404
9 3 0 16.462904879980407 23.355632855334807 19.667875430614714
10 3 1 14.066964918970568 35.64178697234859 22.94872533364107
11 3 0 18.523061488685215 25.82288961706697 28.35165743097776
12 4 0 32.83298090665733 22.41822201625539 31.282972047122335
13 4 1 33.98630773380198 17.904838251233283 23.26730834586238
14 4 0 34.33430575889046 12.54585993800515 26.59750483033132
15 5 0 22.348819922845916 15.930629327271168 20.066779088529735
16 5 1 16.697781062147794 19.10785663114598 26.744453325318315
17 5 0 18.28754039133541 29.254112914535703 19.733295421095765
18 6 0 31.59992885724651 28.044328408252966 17.12759141502991
19 6 1 47.027462314480566 40.2898411976475 8.754330601655619
20 6 0 30.804881862113323 27.134233597871393 17.130808468688283
21 7 0 28.1783203719771 7.414039887280485 33.165043174842594
22 7 1 38.293102091181886 6.7778401969616215 40.2563041543128
23 7 0 27.6415053722522 20.475096290257703 34.95814648079669
24 8 0 4.164681732312122 25.01385140225831 29.825926978547066
25 8 1 3.4962631347882094 14.779157456741236 8.277099026165624
26 8 0 7.413089199264945 11.381094360473718 10.46025494337629
27 9 0 20.071150667326602 11.472653416895321 25.342128292472918
28 9 1 9.200101543567213 19.273314836910718 12.008099789063817
29 9 0 14.714431094877458 20.30305449903665 29.252894015281953
30 10 0 28.45690478028607 21.279523438089686 8.705576665010822
31 10 1 34.90821194004013 15.403916885021417 9.931061594255583
32 10 0 36.94238086736254 33.32464154357608 7.679893228679044
33 11 0 23.515965544401972 42.688592228736226 13.097399900229949
34 11 1 35.02946772433898 46.843451642667425 13.100863059207182
35 11 0 33.21127432299809 41.05964228214479 18.4049292570003
36 12 0 31.82153154484908 41.24061350331824 14.478863376226881
37 12 1 42.2770600201088 38.14443033769863 10.346572196889738
38 12 0 41.938643746067456 31.75253557019337 21.844142255264124
39 13 0 33.53986532309933 32.018908114924734 42.65408507462497
40 13 1 35.832331165957584 25.650307227916826 46.63592563563681
41 13 0 34.610253740703556 23.915356118060625 40.98514894493082
42 14 0 9.365365694325508 24.786176833996794 25.835326892959692
43 14 1 13.691271159107458 29.688192716677865 22.149754705162604
44 14 0 11.367530083707608 24.60835587592487 24.28999166786529
45 15 0 31.19891377732258 24.355865946646322 40.15932413899846
46 15 1 31.9598210609805 21.846125879960844 44.36421597260295
47 15 0 27.047542237501833 21.767923411848862 44.54877188837265
48 16 0 43.271731209338846 35.66311731250159 33.16143383992575
49 16 1 44.240278767170174 35.99410417993477 46.543770009979525
50 16 0 32.25214690746549 38.4250535198309 34.35174586108621
51 17 0 40.062584580714145 17.845107359696527 30.27354855390332
52 17 1 45.5811244440415 23.313549953710968 24.518163468406556
53 17 0 30.948635798973267 27.67139946879726 23.46964485065522
54 18 0 40.31608536559519 15.869774447303355 29.04197476690302
55 18 1 42.299171978714746 2.562881771653933 19.499772022613932
56 18 0 40.163673492519074 4.458163622045396 21.705884081831247
57 19 0 26.563513125609724 11.184667484392394 11.143533102132015
58 19 1 38.50156654436425 12.078692529946471 16.023430732851324
59 19 0 41.49078615169387 19.917306437586145 11.281301802866105
60 20 0 10.73360322043541 40.44666549725605 30.088731192395674
61 20 1 12.328569627571765 45.46280939787431 30.852166883802393
62 20 0 17.34032504814918 40.089009581549675 32.816065532348055
63 21 0 11.60537875928593 36.921168078013515 26.792177662195822
64 21 1 10.134522220237702 44.76326304366638 34.98251090017574
65 21 0 14.842338151514156 33.95511366024079 27.854559247907236
66 22 0 22.660806215242445 19.64517856177292 11.810617722495735
67 22 1 32.27113816872009 18.38845852407671 10.213455207742713
68 22 0 22.27465992793039 13.393235630298253 18.016571741704208
69 23 0 39.17364391629936 16.461766424478775 37.46640967758975
70 23 1 47.060522662980055 11.082606645323391 33.79268400031881
71 23 0 35.98175258337355 7.593709165217736 35.06969538302236
72 24 0 31.755325081918375 27.154470272410787 37.91555142214078
73 24 1 39.23347830888559 31.46132879996969 42.08734260895558
74 24 0 31.588016225984422 33.277484477134784 31.425879724088823
75 25 0 47.13737962529209 35.21260317251351 11.497445834879386
76 25 1 45.92818942673426 36.06563027699316 12.19574371640254
77 25 0 34.21438517168742 32.70543401240448 8.582633431759414
78 26 0 18.707010577157753 16.460584754873143 25.196657208969217
79 26 1 23.490664668516438 13.75499279079639 28.68045063911729
80 26 0 30.405036950468126 10.978923115065637 27.78871654277737
81 27 0 20.351115487174738 18.899966990167382 12.465596564617462
82 27 1 26.95237497426807 10.366299610638064 9.328199549252389
83 27 0 12.584248035873859 5.176993108062294 23.432545691778675
84 28 0 17.24214985166117 32.00115214869073 34.56091584618805
85 28 1 7.220828015584011 27.493675012908824 29.171568615469944
86 28 0 20.392214802636985 23.158946978652526 23.393638765100594
87 29 0 23.32010703055898 25.005379248779388 25.64403572563004
88 29 1 32.15871125289183 36.301408952603346 15.608698186353298
89 29 0 31.464038016810523 25.5728362879073 18.249953675608285
90 30 0 48.34543618934051 23.592966113929354 36.27452398775859
91 30 1 48.070585483945315 13.944311750787227 45.65386404774855
92 30 0 47.72566963316409 22.444674834899462 41.14982591880378
93 31 0 23.500692981249728 4.853063599705658 13.050856010921175
94 31 1 29.80081021233426 3.136877392046484 17.62492045331578
95 31 0 26.88774410828735 20.25899527932521 21.923437692166104
96 32 0 13.874253699307042 37.20153520686419 12.744360574854873
97 32 1 8.26119418504845 39.59439435691775 9.654411147857495
98 32 0 13.902022934951065 30.172457521066388 7.985508662959073
99 33 0 43.89491977453165 41.82290727585326 28.36110068671468
100 33 1 43.85527010673288 37.89868972027456 18.905998129384685
101 33 0 33.43139660444445 25.87684502053439 31.85429350716079
102 34 0 2.7905055231830467 25.143231200100224 18.126879168616046
103 34 1 0.9410841722798247 35.79733882401242 9.503957767679195
104 34 0 1.8951572868673527 25.71606488320184 17.24962144679935
105 35 0 30.485370081011055 28.24575144384259 22.32535679335046
106 35 1 39.17668579845381 31.17519062970804 20.08988024763957
107 35 0 28.746076505508167 22.126460172325263 17.940776077085534
108 36 0 29.198271904808934 34.67846628560133 38.95441810571714
109 36 1 37.85907221487729 47.430349569263655 47.24619616644522
110 36 0 27.950388964556904 40.31100673571462 28.5233731571981
111 37 0 15.763113542588941 18.47822821389218 34.65213217911369
112 37 1 13.93613493211105 19.416161842158882 29.089797509987886
113 37 0 13.641750850677305 18.97427986220226 22.264234696800703
114 38 0 11.214934933821679 17.88001662784679 24.514850769820164
115 38 1 5.7490399221959665 26.071839703148626 17.037716159356588
116 38 0 11.00741907113451 35.0419560348484 18.81800801115177
117 39 0 17.333677532292036 29.247491093804722 18.69904716982046
118 39 1 25.04709670735688 33.019341160250406 15.65454712245486
119 39 0 19.087125668682415 28.685515166735232 26.22799974572229
120 40 0 17.859958318668987 44.12952969245107 24.939182878503235
121 40 1 22.862448909553052 43.20214714732128 23.956984220584488
122 40 0 27.43474880925191 35.41994305007101 31.024786695882167
123 41 0 35.87956593334105 33.454808246467934 14.541485369720947
124 41 1 36.55583139431247 32.219209697223114 13.559389139872085
125 41 0 27.177777517394553 34.71775575239009 24.86174434388742
126 42 0 23.121032406444762 41.217252829923794 34.24420916933333
127 42 1 23.46129024408797 47.36343966497518 29.85250831471107
128 42 0 29.559628671700278 46.82866831060269 33.51908262372349
129 43 0 2.7825814018355834 23.213825013775573 15.208033795740466
130 43 1 4.799323575019356 20.764733880843277 14.544318419028784
131 43 0 17.114623501199027 14.453327551030922 25.43498218441511
132 44 0 12.22845639923019 19.741001781313887 30.160270673090714
133 44 1 9.429393187344239 21.024755106393197 44.56145223834999
134 44 0 7.844788245846505 29.96045967821029 44.58342725019585
135 45 0 27.598701839297483 7.584411416650364 4.957125565572326
136 45 1 30.1729031022844 3.294688329980011 1.376539383573706
137 45 0 28.54045129521334 14.190941862230538 2.0009097700209293
138 46 0 5.270217049694128 9.057001670155584 21.801756754896733
139 46 1 2.9000312589262274 7.762904849977116 29.573622384594696
140 46 0 17.728519644947784 21.30007499955753 26.809336296067467
141 47 0 22.01520958513958 25.319694989520375 40.364449347778454
142 47 1 45.990415392700235 5.214735320020806 38.598705604782474
143 47 0 35.98648347400214 7.052330147955503 36.779229607394775
144 48 0 7.517844991518296 23.08345158808778 11.596858745019219
145 48 1 3.483469933960304 17.339346064042896 3.24952409905117
146 48 0 15.235245326358205 18.716645050225637 8.886692555201998
147 49 0 23.384725045505984 28.564786847081294 28.540361342233307
148 49 1 14.389314193661203 19.81704832192955 39.63795249380451
149 49 0 25.604720368334718 28.99344099736192 41.76430021196507
150 50 0 9.831401403401376 47.85111840325125 12.416878691009298
151 50 1 7.239361718529828 46.310683747349934 12.802179706293265
152 50 0 22.004317807530633 38.035008916582775 22.11166589316014
153 51 0 27.585744266607314 28.535958634684764 14.503094861479353
154 51 1 19.14007118082022 35.82283081615567 12.312596794897358
155 51 0 15.212928324471811 31.327143102165497 13.287738522923002
156 52 0 45.23720231664726 24.549415529340965 36.56046436316749
157 52 1 46.92486222205573 31.144845873717205 42.35509138191517
158 52 0 47.001161618536685 33.75682869831945 39.68772444422424
159 53 0 19.674275669763386 26.907069093930993 13.295498192191564
160 53 1 5.960533867983918 15.700992462709438 9.065538963848596
161 53 0 10.633187459920256 12.301102069380985 16.107487021639457
162 54 0 17.78035146988644 34.464203463517826 36.36460438039136
163 54 1 15.222835166535779 31.92847826325874 30.045100303462327
164 54 0 26.49994613646138 26.07125030719627 29.061179733415674
165 55 0 12.907130638454568 24.266429985869337 18.028204506409296
166 55 1 0.6521140641723511 41.27987781355027 23.176916198824998
167 55 0 14.595604135695545 25.804080308028414 23.8029258784027
168 56 0 9.320118805812365 24.388850227562504 29.405659193670907
169 56 1 5.696990628300079 13.624477460945839 22.786348598464546
170 56 0 5.4127931354202525 14.701608852160813 27.723256727080397
171 57 0 19.538619181245128 22.401436187932294 34.104037602041814
172 57 1 12.477247727190564 18.01927385284455 33.11070412207694
173 57 0 22.7441197642012 20.947595915384234 26.786977052957436
174 58 0 12.292967155648942 29.615336012953712 29.05379038888233
175 58 1 17.406474350209134 26.636428786521776 42.561875867682105
176 58 0 13.285702160766519 24.465253836600848 29.30269844026803
177 59 0 13.324226966891922 15.483967456116133 23.752584545195756
178 59 1 11.69217112189839 7.850413628555946 29.00646533737011
179 59 0 19.29317735210653 16.181175461442365 35.25195135708972
180 60 0 19.070325055804258 42.37709082131321 11.684784851934337
181 60 1 28.497865027468038 47.23466027658544 2.9325387061092836
182 60 0 30.914195201176643 45.12869632434687 10.400654667216418
183 61 0 21.34605047720162 31.73667292271714 23.561848038021008
184 61 1 21.69252818703361 26.668335890808933 32.968901068530485
185 61 0 14.897799879656976 21.976200735392037 29.857845847171074
186 62 0 15.97607645328352 47.13250097166486 38.66310497612262
187 62 1 8.391441398338355 48.39688757405352 42.42160782289836
188 62 0 14.494189429495588 44.07656806053898 36.88983832422071
189 63 0 45.58016461570481 16.668638465387254 22.89689143531039
190 63 1 44.95554062198983 5.156611365751551 10.542008886105707
191 63 0 36.581461217639465 18.753311136191073 11.6645509001795
192 64 0 40.46916795827995 19.02645372039236 16.82730326755816
193 64 1 43.48093676337791 9.187108933604078 32.05907918514369
194 64 0 36.227902185336305 7.061336321201307 33.35449920735848
195 65 0 7.0934155899312925 29.81503896088044 24.77229321543927
196 65 1 5.055359250858972 43.222533122948775 35.24671310127743
197 65 0 18.157088445218434 40.42281546205309 32.628537914904896
198 66 0 36.688623026663166 33.75461783870775 26.585644449488314
199 66 1 22.71970421882022 20.042866104036847 47.128023877224685
200 66 0 17.86648181235145 18.50017026808611 42.86108994732586
201 67 0 10.156654925388864 18.965622618430977 24.898924184469223
202 67 1 13.931677864896477 13.041534306266195 25.3290054832339
203 67 0 15.647630896613267 16.4382104209719 22.272361674952176
204 68 0 28.368772387035495 21.76829512312648 22.691048990108627
205 68 1 18.502539001319185 29.440723601400695 31.266414328743732
206 68 0 18.698305528023536 36.65022592714826 26.835096676677534
207 69 0 43.745417890688074 39.24485771812135 38.6346343706553
208 69 1 47.78413693113629 42.93036583750796 37.1123633311019
209 69 0 43.607800650020565 34.391457467611254 27.255665930619305
210 70 0 18.577507136462053 30.82573230308157 42.13233664210375
211 70 1 24.546292851514483 36.57388366510441 46.62064019114906
212 70 0 18.522064116379347 26.39287690150601 41.068608024574495
213 71 0 44.315686264390926 28.33108130924895 29.060779261550547
214 71 1 47.322872892619664 21.464585453322496 20.335701835785702
215 71 0 34.226632043353135 25.487860641286396 24.22991642865686
216 72 0 34.501549200320255 9.248277331671545 14.806742160146099
217 72 1 30.121898566874112 11.450387471165634 9.65581189318803
218 72 0 34.46388211447987 8.552537973376797 14.329074805417935
219 73 0 15.57372799743772 35.36117878773765 21.4416247894465
220 73 1 20.288299211722936 41.19948221534091 8.10087350610256
221 73 0 18.125291544529304 34.198568857524506 11.788481470817608
222 74 0 26.37971884361689 28.030623003727055 16.060367209044472
223 74 1 22.850088177720593 33.090342874229215 6.598196570660393
224 74 0 25.369572467983286 23.46024367045558 17.76232745173484
225 75 0 15.535771277799206 25.748470526833 22.935135843584025
226 75 1 6.983080711786601 20.15178085921386 21.16380461466592
227 75 0 9.839438004224341 13.665463094723789 26.451782217781094
228 76 0 22.564182343148204 40.83331664878251 16.2640030982327
229 76 1 31.169774203325428 45.44398807602729 7.183286058750739
230 76 0 35.397712068000835 31.15335230492306 13.349911460257534
231 77 0 13.995261874911828 10.496457049365757 22.85528152722228
232 77 1 11.212473694980599 2.620534645137538 25.0364543485729
233 77 0 21.4099880866859 7.74251249227189 20.47955062645052
234 78 0 5.101056252443725 9.374793451136409 6.840319783716815
235 78 1 6.055402868848285 12.444855168270498 4.5157092461379955
236 78 0 4.936616830307713 22.99017686409592 5.5524674314713005
237 79 0 15.320505099526962 20.461749823811893 22.370193578472776
238 79 1 9.185084871318475 11.389870930009595 22.361638275236764
239 79 0 14.894731698889034 13.219274007264733 28.064562039356478
240 80 0 42.0356756084327 29.63968093103951 28.734284846821446
241 80 1 44.10419637935839 21.827627041302332 42.023045620430395
242 80 0 40.936981519972136 30.890805736965426 41.020467480326104
243 81 0 20.422448208177162 16.204085296256576 25.847816834627572
244 81 1 25.82922333518544 8.383832967874826 36.52700011250202
245 81 0 26.38327207833738 11.82171655704838 32.03857018905446
246 82 0 32.988383783075506 3.045788094014915 7.193299598517074
247 82 1 46.170994481933235 0.6490707569739249 10.042493404748736
248 82 0 41.371931712606234 1.7195979599066864 21.425327808014302
249 83 0 22.618221397028254 34.592250849462026 38.5038515923386
250 83 1 15.780717473137422 27.224634193405755 44.3450434336794
251 83 0 10.201849196169023 13.175467393083428 23.519578148278534
252 84 0 16.979813023817137 27.176543044475437 19.530227887175382
253 84 1 16.260193964381237 40.24995077393128 23.332836105620157
254 84 0 18.23711163189034 32.735317229988816 30.365146771791043
255 85 0 47.30165014890405 42.888505651606906 27.70810632016733
256 85 1 46.850488689694494 38.84168519145113 32.2179585712762
257 85 0 35.50481293897381 29.565605202908063 24.495084430099745
258 86 0 32.09437945179886 29.91147053477585 35.18515517869883
259 86 1 24.851563377302288 37.28989765396766 41.44668926377458
260 86 0 18.5378925312868 32.034815584952355 41.85198268128823
261 87 0 24.39750916341832 4.681436396047793 16.196202192813644
262 87 1 15.824009146079689 4.771611973056203 20.37020405143254
263 87 0 12.061155074513469 12.782988873581989 17.755464327630897
264 88 0 40.02476893638771 14.769286567800298 25.04212809759637
265 88 1 44.64228438229052 19.23181046916492 13.150543447621677
266 88 0 34.04956024179642 20.999834156917746 9.108921134929393
267 89 0 42.90012386228532 26.65320240156067 36.89121747678794
268 89 1 39.612909854207 35.011690681830224 46.21754534236296
269 89 0 32.04846822240085 38.58309416913886 43.84140327278109
270 90 0 27.617255609131213 17.228706816403246 9.64851687553055
271 90 1 40.80673418671904 7.381739338735713 11.592295396366076
272 90 0 30.72049679171782 11.326733002987554 20.1105627638438
273 91 0 19.90093830988866 11.980962274143366 5.721242893536874
274 91 1 16.328858677012544 5.917828800645338 9.240800764223593
275 91 0 22.901631120210226 16.732605833750025 33.02487671575733
276 92 0 30.82795533674907 14.24153705373761 25.27370334789262
277 92 1 8.932968709140996 34.291220871897195 32.0959265783611
278 92 0 2.1713099341486655 27.739570963367616 48.945480610951044
279 93 0 14.606916975334698 11.071429871179685 16.99332772791759
280 93 1 20.969811371121413 9.468091828866678 8.058591535312956
281 93 0 27.697365483235686 14.102415623982887 19.705482498256096
282 94 0 28.82267813820527 36.601748952148704 30.170278497020377
283 94 1 25.212529570297892 43.15644126497234 36.508364516137696
284 94 0 16.672970696407994 40.493181459249094 39.86967057582472
285 95 0 17.970190463751344 14.604346400056228 38.16280427791942
286 95 1 9.658388530389793 17.447353341953345 44.803411818587804
287 95 0 21.44119460089054 16.436486713739892 35.83197146664188
288 96 0 19.72335904263423 44.7398593902263 18.287922958866123
289 96 1 14.76397790566567 42.500557168179846 24.013688388036996
290 96 0 24.575564878358595 31.5117360075938 25.031378022979695
291 97 0 24.889256038238887 9.551580739590198 17.33334423511393
292 97 1 31.772695395201207 1.8409794142099905 4.793202418024521
293 97 0 31.75320223913878 16.465307757362154 14.71929442330144
294 98 0 21.647254217702706 38.781602565698876 37.733574484878304
295 98 1 17.271466312956374 38.73776217746521 36.34558942092232
296 98 0 13.595315319420418 40.33723901812133 31.303096924248123
297 99 0 28.614695414629914 24.012648035400865 36.957667336852005
298 99 1 31.140275855579805 24.98247849275907 41.23251247386912
299 99 0 34.10552631242636 26.40897842856681 28.741105192202976
300 100 0 16.311716480326453 33.987284643252295 32.764605946314546
301 100 1 4.564126838909898 41.70584807379704 43.0855908368999
302 100 0 4.716762805597036 33.67389982745694 32.04465724336594
303 101 0 29.68644744064198 20.98262275518393 5.2948911092355715
304 101 1 40.828725313137745 9.73303874218661 3.20284664277591
305 101 0 45.0099365658264 14.50617074385989 18.651472348157856
306 102 0 30.403132755446837 21.329308402073895 40.33645225185358
307 102 1 26.393375655840057 24.574673878568877 44.260520406688805
308 102 0 26.76275051531265 30.521536492312883 41.564180009565945
309 103 0 29.142844967669173 15.44677431753054 15.016198112163647
310 103 1 41.8833762462435 4.4040820036094415 17.310277484912785
311 103 0 30.03873915992087 9.900901813228952 23.007857190141547
312 104 0 30.571145217176973 7.693762759922851 13.41039542046321
313 104 1 38.26155579566813 8.136066622875692 11.909618947911667
314 104 0 27.208196316164464 16.947595811802714 14.68029484500464
315 105 0 28.867875857053026 38.41657766700791 13.136882523779148
316 105 1 36.06776375727303 39.30522527534636 11.24930913268879
317 105 0 40.4865817543892 28.91489925708056 12.28982255708977
318 106 0 19.62491107974202 32.239633694352925 36.516070446858194
319 106 1 24.852454730777183 41.23062808704264 42.15711772969195
320 106 0 20.40998002502125 38.111733513748455 30.20781758913474
321 107 0 24.86225581244974 29.323203539766617 9.337541378075663
322 107 1 26.173925335691404 36.280800343629814 6.083005868410264
323 107 0 32.40358223995994 36.597889621579235 6.889197688715218
324 108 0 23.27032276419476 26.092730523079098 27.584779040485042
325 108 1 23.560049841943737 10.76692755174894 10.467879137737867
326 108 0 12.593073303485308 27.545603089019508 26.514674479753623
327 109 0 43.635908134474455 28.840040820187383 37.51456963628995
328 109 1 45.16151325205488 24.828099845579533 42.36664649848024
329 109 0 37.921298176174155 23.243025979646188 35.48404682746691
330 110 0 15.54004737027406 29.154405815068014 6.143296359529276
331 110 1 23.058553629533773 35.851756071436654 3.4393664268377413
332 110 0 24.276731865990833 40.050678604789105 6.333272312024887
