ITEM: TIMESTEP
46
ITEM: NUMBER OF ATOMS
333
ITEM: BOX BOUNDS pp pp pp
0 50.0
0 50.0
0 50.0
ITEM: ATOMS id mol type x y z
0 0 0 27.182638747265482 26.101263436140915 31.997131720491247
1 0 1 27.01295532897927 22.827428454630716 32.90656950692741
2 0 0 25.774617743651966 27.93632357210315 36.606526565111345
3 1 0 25.23626263639702 43.3198556305873 10.890484475166149
4 1 1 26.92540106948199 43.96353521733688 6.249732579128934
5 1 0 21.92059262617869 34.33890006070627 14.01854289507177
6 2 0 41.46535533978229 27.335021780931015 37.41116057561461
7 2 1 38.48148868732763 24.294937281078177 37.914889524546226
8 2 0 30.970767698307263 25.909212392322118 30.83539913031172
9 3 0 15.787814151366634 26.853036780195623 20.623730373929853
10 3 1 14.188149827064814 35.250317750389236 22.985817916955344
11 3 0 17.259113998346866 28.588882059195825 26.802299184067977
12 4 0 33.15441656770349 21.150596173308433 29.06307828101626
13 4 1 33.97215280419107 17.895326313986587 23.459598441769177
14 4 0 34.24007940657139 13.965654689738475 25.741054381385442
15 5 0 20.55862486278566 13.63729450133379 25.162511675807636
16 5 1 15.785218218045385 3.678131007848542 41.083146628244364
17 5 0 17.698358820419692 22.927049569940937 24.981735870674495
18 6 0 36.12863585174785 31.65191966596583 14.644746898693905
19 6 1 46.44722371300881 39.82416404179805 9.061379122460963
20 6 0 35.57159011852959 31.00038391243196 14.670368874160493
21 7 0 31.03772625815046 7.271106761337658 35.17585552994404
22 7 1 37.920754014229374 7.037990464468421 40.03468606210662
23 7 0 30.73966297224684 16.455620216746002 36.49328604409077
24 8 0 3.9762582125854187 21.958847931232427 23.418291829907083
25 8 1 3.571804472166018 14.914255198445153 8.709473321485461
26 8 0 6.408632176199286 12.280239339874745 9.954306970613482
27 9 0 16.886029033240728 13.765464081626645 21.47218240923778
28 9 1 9.474285259453374 19.11784639373583 12.57384190050985
29 9 0 12.11414858214328 18.61021222835139 24.644811371704787
30 10 0 30.240996002780605 19.707758735156155 9.037382740791248
31 10 1 34.83517405900176 15.830029388278064 9.869212713205842
32 10 0 36.32722916464723 28.078348148169837 8.337574780349108
33 11 0 26.8002337014146 43.86040951167957 13.112205828598096
34 11 1 34.795042240622436 46.67228093445359 13.190356533762255
35 11 0 33.67784631126611 42.626589759424185 16.958237042979828
36 12 0 34.7950487007859 40.34197900814723 13.335344554402582
37 12 1 42.086940716853796 38.08523791335226 10.623855401960116
38 12 0 42.006702295057 33.598358073301576 18.55106632068872
39 13 0 34.16074737360993 30.282585930414808 43.72462473618801
40 13 1 35.77394690171294 25.72972655187999 46.47757802273266
41 13 0 34.92358448887757 24.381015982414596 42.44823454781638
42 14 0 10.526425319474706 26.100404731066025 24.846224628671255
43 14 1 13.58142364623475 29.524511279442606 22.245910751986628
44 14 0 11.964044426120898 25.91299116551222 23.74054214405251
45 15 0 29.73848294074393 37.9420679808922 22.707476937808924
46 15 1 31.831118336473263 22.223882687428844 43.85097498733213
47 15 0 28.266972368654667 21.832880799132234 44.440117753971315
48 16 0 43.51619977435357 35.76522064280314 36.97552008451382
49 16 1 44.0058691112975 36.03226146926983 46.084738402478706
50 16 0 35.75849970829865 37.71252664078013 37.88220506704742
51 17 0 41.562656444178664 19.383141447403595 28.66448984695991
52 17 1 45.222567981982934 23.29752143827819 24.598702667168872
53 17 0 35.185381504813925 26.38990330046649 23.790284743163337
54 18 0 39.51278573550535 12.70559377260532 27.361132996033014
55 18 1 34.18646875777255 6.395034511779388 25.94010151186874
56 18 0 39.37167952386718 4.652687764563599 22.196756763890487
57 19 0 29.999122463991334 11.462942089366337 12.531467342394434
58 19 1 38.3410643628157 12.198277399021517 15.854757846518847
59 19 0 40.62318943752426 17.725744487758444 12.592243864416655
60 20 0 11.181929625499203 41.68227784273247 30.300649084337795
61 20 1 12.686199089548905 45.09717774363524 30.999118572941537
62 20 0 29.340220120207203 33.27035609034467 37.84830771391796
63 21 0 11.200340967009966 39.11615932656919 29.094968459567458
64 21 1 10.244363943256694 44.432733253286166 34.71157095715638
65 21 0 13.489909218533853 37.04864118619782 29.887033948685115
66 22 0 25.31829983558843 19.281226397730705 11.3849851158384
67 22 1 31.926657607835107 18.321087356845105 10.380277286976025
68 22 0 25.128551657640415 14.835479058852611 15.773119436646471
69 23 0 41.358084565134895 14.942796062675667 36.438663257688276
70 23 1 46.72839256784044 11.114643920672949 33.87901707177395
71 23 0 39.1116882115867 8.600251127207356 34.71625783621152
72 24 0 33.818144977541756 28.358640200181725 39.04972592472113
73 24 1 38.96844813773726 31.419404702822536 41.8256222890747
74 24 0 33.76564193236121 32.744069344718575 34.47912523871382
75 25 0 46.95637612847205 35.31989622511951 11.583769178704504
76 25 1 45.729541999921594 35.99877746392251 12.125686134990737
77 25 0 37.573996643124055 33.66751001427555 9.617422932645601
78 26 0 19.99115233811611 15.737394812493367 26.115607966280983
79 26 1 23.528111355195982 13.75280120351118 28.608530272357388
80 26 0 28.521713313347767 11.737191036784447 28.020491970305386
81 27 0 22.180506179831745 16.46721414255247 11.616908465479808
82 27 1 26.573686127293744 10.420756753454935 9.641359113483889
83 27 0 16.817831388918766 6.718357478006753 19.26826813969219
84 28 0 14.417226133347121 30.701631473109185 33.00550053431478
85 28 1 7.634494254240403 27.49547934236295 29.163038270810304
86 28 0 16.598447391360672 24.42958629629483 25.08557293600675
87 29 0 25.90752936392581 28.28462690929886 22.71146875440327
88 29 1 31.98623809877928 35.90885889179709 15.836926916284915
89 29 0 31.636131366734187 28.57441157821345 17.530916099093524
90 30 0 48.26557971341419 20.838891621865134 38.96072650533847
91 30 1 48.069546423900746 14.262774248860108 45.409035275176514
92 30 0 47.82218004643447 20.103335524472687 42.38088456101389
93 31 0 25.209877227549182 4.431453757190291 14.309047988100291
94 31 1 29.6416421542581 3.4769549528359796 17.62590500713773
95 31 0 27.72524546776371 15.239354343816967 20.64949801196201
96 32 0 12.395569718552284 37.81586852631554 11.919448275003235
97 32 1 8.452571490089689 39.389650472021216 9.675971719789834
98 32 0 12.318676709629191 32.83401543450246 8.46544212021324
99 33 0 43.854397221511164 40.687308438923296 25.74313951124728
100 33 1 43.66524224243839 37.74689228072083 19.307118773895393
101 33 0 36.51237315553682 29.441222765836574 28.054355135989425
102 34 0 2.2609635528916887 28.186862010436887 15.662900806927992
103 34 1 0.9910048739539967 35.428549832541904 9.795112230786962
104 34 0 1.6259159032141024 28.573058083151494 15.055126977732966
105 35 0 32.8734146238353 29.03669567429202 21.698943822213188
106 35 1 38.84073431611509 30.96303840901232 20.08990844539139
107 35 0 31.733232104484095 24.729920924552022 18.566769973912713
108 36 0 31.70499428376734 38.39143604956627 41.32693760151783
109 36 1 37.5202985385216 47.068665082799576 46.75231787883142
110 36 0 30.8640476628783 42.3849907922631 34.05290627795118
111 37 0 15.309116247595744 18.7482864869282 33.17675360992762
112 37 1 14.045311007095536 19.50829930710275 29.032034151286656
113 37 0 13.747690835665129 19.117688416487784 24.089747403172087
114 38 0 9.665934361775449 20.2484042148313 22.380812158606215
115 38 1 5.937574687955361 26.083317165034376 17.201172405004282
116 38 0 9.539927967214437 32.490017058904584 18.336777775663013
117 39 0 19.453209550803848 30.280387221485146 17.883035361233816
118 39 1 24.809056114513563 32.87772270537296 15.894557884692727
119 39 0 20.77625517196575 29.918518699737135 23.20387183509468
120 40 0 19.137590483107232 43.875471391069226 24.70811331393771
121 40 1 22.864584818889437 43.07966920912901 24.096796943458408
122 40 0 26.122991168680507 37.633659175333044 29.018840664945756
123 41 0 35.97789969163288 33.33459128657048 14.408000247819073
124 41 1 36.378174087325675 32.27024810186536 13.77412986153616
125 41 0 29.89682535769598 33.99358576479696 21.584493648365747
126 42 0 23.227105631511375 42.878693604986985 33.06458210823729
127 42 1 23.556907498096642 47.25151782645537 29.987052356247897
128 42 0 27.923670810956885 46.95799606089849 32.54599361945836
129 43 0 3.257210799042912 22.658198840132464 15.087723226847688
130 43 1 4.995617247696456 20.68345473988832 14.751317249728432
131 43 0 13.499287383608317 16.309467313867103 22.24324103604558
132 44 0 11.412651103242483 20.137867753803164 34.3352161942403
133 44 1 9.452428724358874 21.15509299676979 44.30337270028057
134 44 0 8.291988315558584 27.478512220325445 44.5377564463898
135 45 0 28.26518019597344 6.48998319787457 4.026815471968191
136 45 1 30.10273997666333 3.5551245831818594 1.4451955410800006
137 45 0 28.99641644781333 11.118530501205015 1.8323368444457
138 46 0 4.687605531087947 8.749328924805372 23.93257401550997
139 46 1 3.450342380000479 8.115963961483972 29.522802003291527
140 46 0 26.486593787936403 21.454804024506 35.728313099502884
141 47 0 29.192414829753925 19.282064090273284 39.828435379262
142 47 1 45.37089073881153 5.620728630889105 38.60003929392481
143 47 0 38.7216814734984 6.594034971867715 37.29387138330179
144 48 0 6.409923748598528 21.46488743672857 9.254480081664783
145 48 1 3.762949069622623 17.46426425529662 3.4956772174433333
146 48 0 11.871430457438422 18.33666868771771 7.290457955743969
147 49 0 20.798384947179663 26.042642471273894 31.80784127583222
148 49 1 14.75292636356574 20.139643543067308 39.475418128126115
149 49 0 22.38306275727623 26.361500516449105 41.1165779263349
150 50 0 9.314088281166391 47.5159594378492 12.512481479633479
151 50 1 7.5432810801333625 46.179021515840994 12.967705649273594
152 50 0 17.658923216922904 40.476781146157336 19.367648041085335
153 51 0 25.17780920288666 30.593139793345706 13.883056709842444
154 51 1 19.22221528663251 35.6208315888098 12.361740901270146
155 51 0 16.25744193518291 32.48171740513974 13.038207579974225
156 52 0 45.70448242645432 26.38041282659764 38.15872166492497
157 52 1 46.896963847372795 31.06883477528759 42.217474716011
158 52 0 46.98031086352319 33.142033687907 40.291311454299894
159 53 0 15.659222514892981 23.606102572903456 12.072727617026247
160 53 1 6.289067512523599 15.846138328390332 9.262946541640213
161 53 0 9.375792931113375 13.27401332359594 14.167571194997794
162 54 0 17.121252287447536 33.766792045858146 34.661627044662296
163 54 1 15.465675366387703 31.866701722878076 30.13286005627187
164 54 0 23.2732926055619 27.757299301892385 29.359884628376204
165 55 0 9.314255862232692 29.2655942976679 19.55766061189861
166 55 1 1.1133185665738943 40.70956641488775 23.104224623057906
167 55 0 10.504923116199002 30.335301957578302 23.605575380997582
168 56 0 8.27838877112624 21.2982915114604 27.51505145740008
169 56 1 5.757196275048551 13.833099305163064 22.98063722162288
170 56 0 5.490861563176512 14.454401299402345 26.505293228575994
171 57 0 17.630476164459346 21.208844741130772 33.81659845763958
172 57 1 12.778814889285668 18.145431517880102 33.015538862097166
173 57 0 19.82698115528691 20.121589808112194 28.597332281252335
174 58 0 13.761513897616055 28.747133571859425 32.92998992751002
175 58 1 17.234624047942233 26.65324471618382 42.09062165570396
176 58 0 14.459812269498308 25.100042220778608 33.09231113475166
177 59 0 10.438535298213882 1.8461326070464101 5.251945269440986
178 59 1 11.86628778076273 8.115688125402206 28.958960890465512
179 59 0 17.11759217734324 13.812118346736128 33.444164830824036
180 60 0 21.795256716808336 43.772257321111766 9.180857026535312
181 60 1 28.370335336811145 47.112320269577936 3.2150026536277525
182 60 0 30.241765372648015 45.68371864631175 8.368196855131142
183 61 0 21.425863040997463 30.293886143461236 26.208432107848175
184 61 1 21.56966283211692 26.67617273780439 32.75011863719027
185 61 0 16.774292050952127 23.285975796229245 30.69270591278236
186 62 0 13.907813516877514 47.47061795518288 39.68295185104293
187 62 1 8.625499959287524 48.30104006176198 42.26247752441712
188 62 0 12.817527035725382 45.272033046838295 38.416093518905726
189 63 0 45.37311805845589 13.342821805648999 19.288259569952512
190 63 1 44.81589577304342 5.609966167312096 10.785735196043863
191 63 0 39.02301284288763 14.82560344253446 11.37353530699164
192 64 0 41.2068544042196 15.087326043954668 24.918425315485752
193 64 1 43.3043111318584 9.330383793522127 31.803904367535406
194 64 0 38.188328740385636 7.665067052383094 32.96147229713394
195 65 0 6.6054321683160575 33.637974288070474 27.80853219631128
196 65 1 5.84698008917071 42.29460008416494 34.883601139720774
197 65 0 37.80881222859255 12.879961228471425 27.806446718663885
198 66 0 32.48996160949123 29.64213108075567 32.728672286164375
199 66 1 22.899276484551702 20.27199847442463 46.676782809362955
200 66 0 19.191957534191705 18.94649361134941 43.93795247379278
201 67 0 10.897068024030455 17.008255728420238 26.283676938908624
202 67 1 4.700203683447668 4.599492713745578 48.30498617749954
203 67 0 14.886140955464407 15.230348644579351 24.345302424838277
204 68 0 25.503462896546242 24.016752075742925 25.169742265315094
205 68 1 18.683311198437707 29.425417309991932 31.036789487791072
206 68 0 18.671359933056426 34.64664092981292 28.030377487542648
207 69 0 44.772901596482484 40.17155152341655 38.22092850750619
208 69 1 47.64529293165235 42.719161500237504 36.960384859524616
209 69 0 44.80182490899533 36.84406067822755 30.10105784228864
210 70 0 20.218963975349798 32.39744513077531 43.36454457166642
211 70 1 24.336554362658024 36.293972653458944 46.444769452038415
212 70 0 20.235666418958466 29.29960846987981 42.6512005191131
213 71 0 45.1334189799499 26.392596537198806 26.594237662236758
214 71 1 47.03570454498805 21.657225890462932 20.558684580971455
215 71 0 38.00368990164704 24.344020259170534 23.128541075984895
216 72 0 33.33917389414673 9.83444177182569 13.440714757562711
217 72 1 30.266377542114014 11.365928026545173 9.818551778567093
218 72 0 33.314738400833335 9.31769184674111 13.091178914033007
219 73 0 16.93767685947282 37.03888415271246 17.575816945476006
220 73 1 20.16727851968637 40.97638907761092 8.40385390800835
221 73 0 18.74670738466775 36.11054420778029 10.889832009417008
222 74 0 25.38755259298784 29.438208074563068 13.411346999347858
223 74 1 22.95716072523128 32.82871621504639 6.964489351414843
224 74 0 24.648386914671747 26.238269819292082 14.550936753141913
225 75 0 13.1366334573099 24.156413842448455 22.450678594481605
226 75 1 7.180967373315737 20.138298843048865 21.28515263626367
227 75 0 9.072384066402618 15.473230732626293 24.99469930961127
228 76 0 25.05152924701045 42.118540899344524 13.669851357285795
229 76 1 31.092402071021198 45.10463475450927 7.457293345192028
230 76 0 34.15043541336422 35.310375685790234 11.582011667151711
231 77 0 13.255455624658419 8.343637492931325 23.443682783911672
232 77 1 11.440318786867422 2.845262049881009 24.918674927242684
233 77 0 18.504260534200007 6.299633606722866 21.77562065311484
234 78 0 5.3231443504664435 10.126355706288601 6.2949233345438635
235 78 1 6.021944369661647 12.584312706075943 4.567715117841771
236 78 0 5.2499870480522555 20.00707439880299 5.265590710471416
237 79 0 13.600404647931736 17.901586063853877 22.382250190864212
238 79 1 9.389314717832846 11.57975013528984 22.458395340711682
239 79 0 13.34784093363614 12.74192303866591 26.499887483062327
240 80 0 42.62862110776379 27.39246457672026 32.5966151221747
241 80 1 44.01241063234246 22.125009493757947 41.76646211482096
242 80 0 41.81446635959613 28.385011920328367 41.264182364183874
243 81 0 25.73034919209879 37.018687697576084 18.414834755504245
244 81 1 25.77126913191828 8.770891927611059 36.17630719671745
245 81 0 26.232813064487022 10.96863458184666 33.15492817640905
246 82 0 36.753534229004664 2.398163335215001 8.045963771287871
247 82 1 45.63416692631556 1.1739930153865823 10.183819768908574
248 82 0 27.592619059303807 35.62597937874654 16.45196993600217
249 83 0 20.65726582156778 32.45455398099146 40.1039993516209
250 83 1 15.804596649283466 27.092540697721926 43.84969758295883
251 83 0 11.888402712505748 17.391112917057924 29.71857365425769
252 84 0 16.777799024319904 30.923066728712822 20.645259230568374
253 84 1 16.30685381405686 39.88690283522638 23.387754848469687
254 84 0 17.682656790914052 34.81470683652799 28.37582649696453
255 85 0 47.15468075783878 41.807563917715306 28.86638312586464
256 85 1 46.65244882465922 38.739213960694826 32.005298917442374
257 85 0 38.82042048130301 32.286064261776 26.73933023672256
258 86 0 30.00978519221309 32.003781052501665 36.97378095471977
259 86 1 24.87254911652317 37.07034896872782 41.34286578206681
260 86 0 20.28674693250682 33.45484236522437 41.724314818733255
261 87 0 21.99588564368055 4.728016235099782 17.353609896699176
262 87 1 15.90708833002459 4.909117484999206 20.253288198176936
263 87 0 13.129686671543233 10.556351479789345 18.471073376377127
264 88 0 41.452403258770254 17.101235814961882 17.99434508126375
265 88 1 44.37371452934678 19.183425838382664 13.291195652921104
266 88 0 37.046685684515154 20.48490673713147 10.290787068599819
267 89 0 41.93544574783727 29.06316644985644 39.562683116470595
268 89 1 39.54212716031897 34.924106509810706 46.011173265115026
269 89 0 34.14533317254594 37.574570780285065 44.47187237939337
270 90 0 31.439086625150313 14.364908215517966 10.240591412674434
271 90 1 40.38526493593504 7.630950762861849 11.709473454776871
272 90 0 33.58962376076735 10.21788371156157 17.649778611996116
273 91 0 18.946689718228562 10.369426237667124 6.748209348640166
274 91 1 16.490860785254775 6.3935220636731405 9.702161501129545
275 91 0 17.03371920199376 34.57843236223729 36.54391385491435
276 92 0 24.230932347837953 20.24336424580574 27.374609925263595
277 92 1 9.216520774593995 33.79926020255884 32.27632718039842
278 92 0 4.2314723687224065 29.609135124238783 43.95818417287553
279 93 0 16.42643065137066 10.630448691530066 14.496712797744534
280 93 1 20.978730619591794 9.579092049225448 8.423482014790677
281 93 0 25.734868619674796 12.767215409167765 16.36355354142569
282 94 0 27.789368129533816 38.428864075279165 31.95302349159536
283 94 1 25.1275657724359 42.996904010160485 36.45663253917127
284 94 0 19.065736115375625 41.21872086920051 38.91459556090058
285 95 0 15.653783979317597 15.403447925707113 40.0144638668728
286 95 1 10.015157475872975 17.37951839695508 44.52632183292336
287 95 0 18.049327821480137 16.722348026288827 38.41379240212178
288 96 0 18.39923637789095 44.10091393668975 19.849456243400137
289 96 1 15.02429789593667 42.339951478702226 23.935224441748613
290 96 0 21.74454611406495 34.70342087104941 24.720835588785988
291 97 0 26.895962493758674 7.346092594054066 13.706256470120454
292 97 1 31.64817963722863 2.245280975631965 5.199452247614358
293 97 0 31.73890844807306 12.20181605156903 11.84676475162856
294 98 0 20.563873782734344 38.77549698735514 37.37867810004986
295 98 1 17.277817285020017 38.76450928502418 36.28439052291162
296 98 0 14.57707162669974 39.915392167777505 32.63716366896794
297 99 0 29.233356908056315 23.98960793868214 37.620557150227285
298 99 1 31.296167746736906 23.79797011633464 39.47924928455216
299 99 0 33.29291867452916 25.688782351249095 31.902751561192407
300 100 0 12.871459863018595 36.224855007029134 35.75574145148142
301 100 1 4.779794598684143 41.422805610457715 42.70175708650507
302 100 0 4.706316849928938 35.96499545185048 35.194885522978396
303 101 0 32.9458590293115 17.718225469596852 4.730564355684596
304 101 1 40.70342878134468 10.022181419535604 3.5199050098727676
305 101 0 43.755274593090846 13.14429086129503 14.142840766217676
306 102 0 29.344460692561658 22.200640521214115 41.36702871400118
307 102 1 26.46505917526873 24.61905244669803 44.15208634887706
308 102 0 26.674352586600968 28.940210136215054 42.26857785832379
309 103 0 32.83454282777931 12.233350535949722 15.70340672273049
310 103 1 41.4410999824945 4.702025526348999 17.3708235122043
311 103 0 33.42424893645578 8.344330603561483 21.35542099890789
312 104 0 32.63020627460176 7.835296963644394 13.010113297504697
313 104 1 37.937504987363646 8.285695281281857 11.984102105195255
314 104 0 30.386280116879583 14.397283236398165 13.882617507601802
315 105 0 30.827249589445053 38.629753172863126 12.628957379260335
316 105 1 36.02489087561277 39.10770017580743 11.299201109389305
317 105 0 39.21317194076396 31.862146778361232 11.999419310283661
318 106 0 21.100581023820652 34.78991462759782 38.089111207334454
319 106 1 24.681382054140773 41.01681709544381 41.84530904887235
320 106 0 21.671463225854794 38.98290259568643 33.62383740278702
321 107 0 25.233936477810733 31.21590885604058 8.454498722479551
322 107 1 26.253264950249722 36.1687636410653 6.150969139448122
323 107 0 30.76302153951068 36.49794731007193 6.685059415242178
324 108 0 23.32828412846268 21.58536625021703 22.547410904175944
325 108 1 23.37063715037226 11.33375003651469 11.068363262641125
326 108 0 15.870002880659584 22.57860372844829 21.775693236215773
327 109 0 44.02163760033088 27.779824920077772 38.77722014962128
328 109 1 45.01055971828169 24.86570535908654 42.16781747070917
329 109 0 39.93752558045599 23.70411556969252 37.41311433176314
330 110 0 17.660259440562275 31.05090436050445 5.3891807669004015
331 110 1 22.946542133151965 35.800912707764795 3.531940730366804
332 110 0 23.948376124562294 38.96786819991935 5.605625706696512
