ITEM: TIMESTEP
52
ITEM: NUMBER OF ATOMS
333
ITEM: BOX BOUNDS pp pp pp
0 50.0
0 50.0
0 50.0
ITEM: ATOMS id mol type x y z
0 0 0 27.159685929072413 25.65236359856382 32.120766252564415
1 0 1 27.00172700100154 22.907673959627576 32.936685330489865
2 0 0 25.9772429744064 27.10128553267962 36.00102463578537
3 1 0 25.494054782620797 43.41372704635426 10.178839551091047
4 1 1 26.853474165534045 43.85021644847967 6.380740767255222
5 1 0 22.813484632632765 36.05799772975135 12.634129573252999
6 2 0 41.01253782804693 26.881429302101445 37.48059365456514
7 2 1 38.42767373316269 24.340721032705027 37.83316034614233
8 2 0 32.28686977799061 25.629466057616163 32.073096269154526
9 3 0 15.515888325317437 28.28820414012045 21.032008654046855
10 3 1 14.23769242376941 35.090257776779296 23.0009649626601
11 3 0 16.738340714585203 29.71460699125024 26.15163744444949
12 4 0 33.28892814935229 20.61308710189613 28.144284138236316
13 4 1 33.96632426865397 17.891467875184464 23.538453675935248
14 4 0 34.19882377552222 14.56490020617775 25.398165546176866
15 5 0 19.687262169113666 11.836476947935328 28.057693435534013
16 5 1 15.857946937587514 4.018677686714766 40.71860454538781
17 5 0 17.3490359157764 19.37342553112898 27.946432797070436
18 6 0 39.6619589631286 40.39945504265567 2.5157631208672413
19 6 1 46.07825105924346 39.749842027903696 9.092259864496574
20 6 0 25.950721956136437 35.17508480962765 16.922942937824047
21 7 0 32.20430458901026 7.239749630168976 36.00071796698899
22 7 1 37.76854823367512 7.1444455416356325 39.944115082646995
23 7 0 32.00834920037832 14.783702880708733 37.11759781447586
24 8 0 3.9053794681318914 20.679792194295803 20.753393824019298
25 8 1 3.602580214368585 14.96973447626288 8.886807966459967
26 8 0 5.991725041921535 12.673196970750515 9.782813909097234
27 9 0 15.569552856206588 14.717501665435208 19.900215298763378
28 9 1 9.585412691699675 19.053034139817978 12.80546212426208
29 9 0 11.652705601369409 18.69517839942831 22.510852408086496
30 10 0 30.985776862080577 19.08972924307117 9.171537782129068
31 10 1 34.8054952786238 16.004410041160785 9.843915625155239
32 10 0 36.05815754564846 25.905582359157023 8.608975279044712
33 11 0 28.164001518357583 44.33727081020585 13.128426679018594
34 11 1 34.69901739288077 46.60225909607067 13.22691894635146
35 11 0 33.85048215566062 43.27009239030085 16.357031479573973
36 12 0 36.03254479929842 39.95466109740216 12.881828055747702
37 12 1 42.00913366918505 38.06099696601284 10.73735768968389
38 12 0 42.01391542345013 34.37328110610582 17.188030412575742
39 13 0 34.41715599468942 29.5570294271515 44.16088474057239
40 13 1 35.75001091158207 25.762334012612413 46.412691197256706
41 13 0 35.050186319456444 24.584879218398328 43.05020079709061
42 14 0 11.004176775400264 26.639003564910038 24.439372839620958
43 14 1 13.536469097392345 29.45764056355949 22.285254255321483
44 14 0 12.205538737196118 26.444286015973063 23.51789678405799
45 15 0 30.123813765638015 35.02454613823088 26.632069283118238
46 15 1 31.77550570518392 22.401947004338624 43.61200779678016
47 15 0 28.771497633796766 21.901247873632773 44.33916090387612
48 16 0 43.593154892313734 35.812670445289946 38.53595715145221
49 16 1 43.909990742380565 36.04787644684447 45.897119484862735
50 16 0 37.21576577817196 37.41529909571197 39.32368657645561
51 17 0 42.15783949762904 20.031514767865968 27.993090907774725
52 17 1 45.07578952289952 23.291038191228047 24.631605339596227
53 17 0 36.93859371289113 25.845281373112098 23.935359502227698
54 18 0 38.60915177554752 11.628332891061433 27.115727785446687
55 18 1 34.29601721809149 6.444113330568311 25.916855032828035
56 18 0 38.52253735729947 4.944685292852847 22.814110716516502
57 19 0 31.436618052727713 11.594506648386252 13.10038026806913
58 19 1 38.27529449203059 12.247266126487618 15.785654587741279
59 19 0 40.23801601078772 16.810430071085886 13.129099663055564
60 20 0 11.410751110700845 42.16361025282132 30.406215039467934
61 20 1 12.86350850072441 44.931267336405185 31.07131475716138
62 20 0 26.274558800861044 35.44363043720771 36.58744397078739
63 21 0 11.041054460458742 40.00664076455381 30.036994720016317
64 21 1 10.289274781242593 44.29765514985554 34.60087943334766
65 21 0 12.930627632022595 38.319449728018455 30.716222110381384
66 22 0 26.4025094696553 19.12064391196187 11.22312463806897
67 22 1 31.785799471465914 18.293515347955683 10.448486485313481
68 22 0 26.297253750681275 15.43798569663977 14.84281437988628
69 23 0 42.24504545705607 14.304625872247378 36.013835036192674
70 23 1 46.59249125334387 11.12767620867767 33.91434936094881
71 23 0 40.39859619635617 9.02936854790344 34.57631050619514
72 24 0 34.66010343218142 28.862001460937925 39.5004428905791
73 24 1 38.86010041888693 31.402334709472687 41.71855689169577
74 24 0 34.657216488636536 32.51380960741868 35.74140381690561
75 25 0 46.86215012426768 35.3642507197944 11.618442192845178
76 25 1 45.64789973467602 35.97100317958832 12.096634096265362
77 25 0 38.9746553050426 34.067345720493904 10.04771631591456
78 26 0 20.54019433255316 15.43027092149999 26.497651079047362
79 26 1 23.54345704633998 13.751911502912312 28.579014330348897
80 26 0 27.72714597622747 12.058551390083593 28.1107032339759
81 27 0 22.91178540820751 15.444813399393164 11.292932919938288
82 27 1 26.418768704078154 10.442743591882019 9.769509334434328
83 27 0 18.565187048636226 7.388882438643949 17.541747710203715
84 28 0 13.268573477816346 30.15208650156125 32.34655213315199
85 28 1 7.8037132795824204 27.496185282720866 29.159509280527082
86 28 0 15.039570794820673 24.967814307965295 25.8010005862497
87 29 0 26.98306970180342 29.627688513367996 21.496235093803385
88 29 1 31.915650715618213 35.74844896732719 15.9302872468324
89 29 0 31.689984620668845 29.797909909613995 17.25240626357038
90 30 0 48.23176767920945 19.709616632431946 40.06901403073118
91 30 1 48.06913510994523 14.392875546966108 45.30893222223001
92 30 0 47.862580540279446 19.150983864880995 42.87424850395865
93 31 0 25.915416859966758 4.2890911647870595 14.840862358258562
94 31 1 29.576528035201722 3.6163133207333757 17.626400580476698
95 31 0 28.06152921446314 13.151977210729985 20.10975729138122
96 32 0 11.792272153359432 38.054529456706824 11.574733055782188
97 32 1 8.53083148563624 39.30578187178644 9.684691424323075
98 32 0 11.669817808932436 33.93724610894747 8.670636499181418
99 33 0 43.81642349839692 40.19070470074692 24.68068860279964
100 33 1 43.587411648764004 37.68463984048334 19.47121157763162
101 33 0 37.795641187320214 30.93387658550018 26.49133709231759
102 34 0 2.0432200634473126 29.432138424615353 14.654211636634077
103 34 1 1.0114088906458572 35.27787269890025 9.914074158122125
104 34 0 1.5171871873285037 29.738615208020065 14.16042336606746
105 35 0 33.84417433936819 29.347848511301905 21.435245595176234
106 35 1 38.70343654683195 30.87625154342812 20.08984620860452
107 35 0 32.95923607042877 25.807350974603544 18.831473593082702
108 36 0 32.726067489575065 39.92009889949518 42.27326202596086
109 36 1 37.38185624360232 46.92089590845976 46.55044671980411
110 36 0 32.0580519315143 43.220636409899775 36.33652077917462
111 37 0 15.119998493358663 18.86075857955072 32.547343922983565
112 37 1 14.054100734552621 19.497607324061995 29.023131478216097
113 37 0 13.796300312366977 19.176380151000973 24.86138432107979
114 38 0 9.030844781564909 21.253382196615725 21.49498818491386
115 38 1 6.014820043315998 26.088018403741955 17.268144238111386
116 38 0 8.939047512733643 31.40983682187699 18.151059277454063
117 39 0 20.32141556790282 30.700857750341683 17.563999940108616
118 39 1 24.71179154124947 32.81983281571748 15.992761990473758
119 39 0 21.464288283208457 30.424277074727954 21.951674711552815
120 40 0 19.68017944836036 43.755570194405756 24.623767847299117
121 40 1 22.86539959359229 43.02940559107216 24.154199925516828
122 40 0 25.56739049884209 38.557781454590746 28.18472960494833
123 41 0 35.1771479875199 32.069004227617356 14.404216521142539
124 41 1 30.91114966030735 25.45465368483975 14.44062957454133
125 41 0 30.1612103383284 32.57576996731104 20.306489510759885
126 42 0 23.281557531079795 43.56912352825474 32.57993867514375
127 42 1 23.596076371927563 47.20565041208349 30.042181902509157
128 42 0 27.242516240377316 47.001460600390466 32.148561287166665
129 43 0 3.4798714867163065 22.410656008235936 15.053955811815825
130 43 1 5.076042819455698 20.6503443386622 14.836459674528307
131 43 0 11.989719648295987 17.086774748880813 20.91473701226654
132 44 0 11.069558964283297 20.32115299642688 36.074683081792024
133 44 1 9.461871072300125 21.208479627556166 44.19761989568363
134 44 0 8.483929472311603 26.441321102985004 44.49034396522292
135 45 0 28.537794862715863 6.05492979096478 3.643739633261594
136 45 1 30.0741128976875 3.6617451097814615 1.4731317679665628
137 45 0 29.1817546694738 9.84772024898517 1.7682318203664775
138 46 0 4.510775187059907 8.660264787443962 24.835495916416463
139 46 1 3.7288625131808346 8.276409543153074 29.538779355165886
140 46 0 22.20708685067811 18.976728491988368 34.5697671896039
141 47 0 32.16044832398166 16.771421672239423 39.60136552674522
142 47 1 45.11777119210379 5.786943135920343 38.60071580830447
143 47 0 39.80358685773103 6.445219819662434 37.510096662429554
144 48 0 5.972363876254044 20.794926122575742 8.292007532841476
145 48 1 3.8772590015613133 17.515314435672757 3.5963021883121775
146 48 0 10.479970560516712 18.189894349722568 6.642820259209951
147 49 0 19.756302258215474 25.021983809805366 33.173814567801
148 49 1 14.901857320764146 20.271760781264486 39.40926295510252
149 49 0 21.061635120444414 25.284870030584905 40.824009907204484
150 50 0 9.121508356775406 47.368475810532594 12.563397323809228
151 50 1 7.668188303488777 46.12453267481923 13.035989424308942
152 50 0 15.852986655512328 41.49609715657485 18.224191273586726
153 51 0 24.16732181106208 31.441869294450893 13.625975846997962
154 51 1 19.257215099496594 35.53858979306298 12.383933797429677
155 51 0 16.70714250801039 32.94987776066232 12.937611890565115
156 52 0 45.89925808286341 27.14717754164403 38.820399080811
157 52 1 46.88548795931885 31.03754361770431 42.16089328049443
158 52 0 46.96918379184519 32.875945805850044 40.53492192420965
159 53 0 13.996404351466063 22.22439257427144 11.577716120504514
160 53 1 6.423691696416098 15.905731903607194 9.343726835195232
161 53 0 8.879922781231556 13.700642945640299 13.3692561256612
162 54 0 16.86764922309783 33.46549335218166 33.950632201925586
163 54 1 15.565211217675825 31.841346172540113 30.16876706116923
164 54 0 21.934143862961395 28.46442430763046 29.496312617296617
165 55 0 7.849598348013759 31.312019731843314 20.195364364999165
166 55 1 1.3095560743294983 40.466153553309375 23.070190823596445
167 55 0 8.829771640509684 32.18348525253841 23.512414245365434
168 56 0 7.844221400375955 20.013498801639983 26.736359335910898
169 56 1 5.7819687675125 13.918749489874585 23.06001806922413
170 56 0 5.528467298880682 14.368905697030923 26.013944408578528
171 57 0 16.857691711030522 20.71961033659648 33.68597731127619
172 57 1 12.900847769279116 18.200089621617263 32.973168907202286
173 57 0 18.626541231807263 19.786154408838602 29.352284731621854
174 58 0 14.362563643123485 28.382249014347344 34.516309681001104
175 58 1 17.160231916020493 26.66123146200124 41.90354644683151
176 58 0 14.936352808924939 25.370152247532815 34.64170518692154
177 59 0 10.708248191394096 3.012397771202341 9.644139618461065
178 59 1 11.905836903621399 8.104444976096735 28.734532698217215
179 59 0 16.212131979075085 12.824953721617238 32.64719482508974
180 60 0 22.933774003915417 44.34529744277066 8.154399936680646
181 60 1 28.29561610919753 46.90635890411707 3.3679715264127643
182 60 0 23.003643210363958 3.1196881880485967 12.430962753402149
183 61 0 21.445879280729898 29.683779806199112 27.30450409111928
184 61 1 21.518424407701968 26.678581818312995 32.660088503048705
185 61 0 17.554856918082336 23.8408042689054 31.022285510069352
186 62 0 13.060516507095322 47.60386188532748 40.09674665896257
187 62 1 8.721165089723476 48.261843632484414 42.19742112782906
188 62 0 12.134186526813972 45.76594410251187 39.04321020219991
189 63 0 45.269249256744246 11.987361032943738 17.78872624915913
190 63 1 44.758811443070954 5.795325743176781 10.885395757469839
191 63 0 40.040324428973484 13.21545979653291 11.278495770172485
192 64 0 41.54300516464449 13.948023663482639 26.626777024308485
193 64 1 43.23116718696754 9.373381960052011 31.748420371948544
194 64 0 39.00006087727802 7.934534990588834 32.7721364719777
195 65 0 6.506016876602273 35.12820254442677 29.044479539273137
196 65 1 6.229457482135024 41.855708180043216 34.72350369080384
197 65 0 31.788458800792746 18.411939886997565 29.13205687422376
198 66 0 30.731186718005702 27.925897835891302 35.279108443344995
199 66 1 22.972954937651707 20.36597504430626 46.491766461469844
200 66 0 19.7718555416656 19.159071077420002 44.34779893659683
201 67 0 9.759288508639264 14.719286405015666 30.340256407080993
202 67 1 4.889268818872026 4.865253367351088 47.774503568843855
203 67 0 12.998877120573749 13.267146395817864 28.776444616884977
204 68 0 24.310101250635533 24.967862879017602 26.19359861787688
205 68 1 18.757394483824775 29.419119108687003 30.942696410306247
206 68 0 18.679385021801046 33.796298136293316 28.511998151724057
207 69 0 45.19164521264593 40.541170588632674 38.032866354928665
208 69 1 47.58850116880245 42.6326451862166 36.897914575722226
209 69 0 45.29240610756852 37.85917326465156 31.289022463239704
210 70 0 20.88775005334455 33.03062320890431 43.864911266608054
211 70 1 24.250889834012625 36.179546535124764 46.37291757257034
212 70 0 20.937504812552824 30.497221707291125 43.3005768634642
213 71 0 45.44732256341582 25.59463723189933 25.57644297742123
214 71 1 46.91822389700651 21.735985386858786 20.649839548672265
215 71 0 39.56954375873143 23.88181061853891 22.68774533009007
216 72 0 32.86400706011318 10.074407692199747 12.882500714916914
217 72 1 30.325485473058137 11.331397616757895 9.885099294506146
218 72 0 32.845321433309685 9.629886670612194 12.585276591692564
219 73 0 17.501288285259857 37.72378482655281 15.974067706814036
220 73 1 20.118050193416202 40.88535095751776 8.528374606886427
221 73 0 18.97146273130007 36.88122374650215 10.501815905975404
222 74 0 24.980956798790945 30.003897275237936 12.3339197276175
223 74 1 23.000883719489124 32.72177117064428 7.114148324009267
224 74 0 24.35529284443562 27.383489115615983 13.23393111416579
225 75 0 12.142571984620508 23.48077187400379 22.25893742340284
226 75 1 7.262062355411815 20.132791313231007 21.334871551843317
227 75 0 8.76899845266181 16.237039761890617 24.390960734301654
228 76 0 24.872904499513357 40.4602955132743 13.424825883595112
229 76 1 6.676785965964931 10.558965337005958 19.620409663132534
230 76 0 32.33487317734979 34.89293348480223 11.701377635420954
231 77 0 12.967092121971335 7.459782188943869 23.67950708184934
232 77 1 11.53356710879814 2.9370943679363677 24.87049261520891
233 77 0 17.3006683103427 5.714156587769414 22.310743507432782
234 78 0 5.414643898104408 10.460606756765335 6.067284257459781
235 78 1 6.008170958673995 12.641438092673388 4.589157767867835
236 78 0 5.378944073782841 18.75871686706389 5.150078499945802
237 79 0 12.895265846349584 16.839711768319663 22.39783703642032
238 79 1 9.472879445463857 11.657502666932329 22.497900310008838
239 79 0 12.71616800076195 12.559665035676765 25.85222544992792
240 80 0 42.86917076510055 26.47509675267189 34.20250665766153
241 80 1 43.9750063685697 22.246870593862543 41.66145107636234
242 80 0 42.17492562196092 27.35949320600341 41.339541806009414
243 81 0 25.738367564615363 31.73701562368616 21.734520706362137
244 81 1 25.774707644629874 9.119173388813484 35.94340663967673
245 81 0 26.169779512820902 10.677801935292958 33.56165740731305
246 82 0 38.264014059865524 2.2229154428630507 8.420529465908388
247 82 1 45.32848002362507 1.5894355708917127 10.234157372447186
248 82 0 30.973170329568156 29.153939171218116 15.271969842804223
249 83 0 19.82943715718816 31.533720245802375 40.7256847587155
250 83 1 15.818490511289776 27.037276153026596 43.64146457930154
251 83 0 12.627181624211646 19.11320874178982 32.3399006980101
252 84 0 16.697573027719667 32.46776637237682 21.12342024693199
253 84 1 16.32592795606272 39.738460564946365 23.410152183478626
254 84 0 17.45341565968781 35.653864832343764 27.541121521118484
255 85 0 47.07258665506117 41.339564283602044 29.33552787526087
256 85 1 46.57115829265465 38.69712157161149 31.918058547243184
257 85 0 40.20250832263471 33.427074097913945 27.665652244944727
258 86 0 29.129062894341214 32.86534712374115 37.71976820271191
259 86 1 24.881174597595518 36.980370024001644 41.30030548076093
260 86 0 21.029493638332088 34.03268010512617 41.65917970240729
261 87 0 20.98755790894366 4.762855935760646 17.831101828852685
262 87 1 15.941246965492162 4.964954940611171 20.205294237257657
263 87 0 13.591451055634188 9.62808007274395 18.761451245918895
264 88 0 41.927454274249804 17.58567428471965 16.712453572165007
265 88 1 44.26793483261575 19.17839276899349 13.299861099903152
266 88 0 38.28637840858309 20.2627853677318 10.80263903603317
267 89 0 41.518555141237485 30.07447600966599 40.67131679349802
268 89 1 39.51310518268801 34.8882103697244 45.926584345108964
269 89 0 35.0264215211001 37.13759849166528 44.71670805590895
270 90 0 33.00812578031504 13.181421887314208 10.50479079644612
271 90 1 40.21147026591217 7.733215142036749 11.757483697246615
272 90 0 34.75501962021442 9.77723273313657 16.62246227807911
273 91 0 18.556929117262904 9.764183621022175 7.242811888573768
274 91 1 16.52143846490036 6.761998750169203 9.986550308673683
275 91 0 16.934205206033777 29.288037627357703 31.499028448559848
276 92 0 21.467237748376846 22.72928902349064 28.287626548030293
277 92 1 9.332541763450726 33.597971786501596 32.350133567408285
278 92 0 5.138812577707983 30.34383722096798 41.86427988100357
279 93 0 17.196814075104776 10.456240870442244 13.481314877906398
280 93 1 20.982440482973757 9.624513045762647 8.572763653936123
281 93 0 24.90501188970596 12.214581476037667 14.990272692643005
282 94 0 27.342024491898634 39.185545751557434 32.70284358735537
283 94 1 25.092730315716903 42.93149521887385 36.4354223435021
284 94 0 20.07046460967488 41.508609806176274 38.504099791127274
285 95 0 14.715442258549393 15.732454747547814 40.765322032209326
286 95 1 10.160946889398682 17.351839217991923 44.41310078942009
287 95 0 16.655077919622276 16.83592704464091 39.47449574782901
288 96 0 17.866802376342783 43.81391382430262 20.501361217526995
289 96 1 15.130931026630073 42.27399535986981 23.90315220277262
290 96 0 20.575159676087946 36.03704266800992 24.580264874244314
291 97 0 27.730518505604724 6.459587245829237 12.218625397687108
292 97 1 31.59730253515816 2.4105333578167625 5.365482469804627
293 97 0 31.717546967473712 10.44454769518127 10.677419576345777
294 98 0 20.10454695370852 38.775843112111964 37.221258557784374
295 98 1 17.280453554650688 38.775474761312815 36.25931175137941
296 98 0 14.994211164563367 39.739594908908536 33.19584412321452
297 99 0 29.489963329031713 23.965485448541912 37.853053672913155
298 99 1 31.301342467403504 23.819515256903234 39.38445890038073
299 99 0 32.9535183970855 25.368244109716592 33.18671532957427
300 100 0 11.43999136455726 37.13935091868964 36.97758567050019
301 100 1 4.868015984058382 41.30711534288921 42.544860513591985
302 100 0 4.726235384630184 36.90154377794532 36.48323136713764
303 101 0 34.31225731816213 16.36875067508725 4.5283047590983285
304 101 1 40.6521692183407 10.140482006518551 3.649634052320852
305 101 0 43.20903337585002 12.600960218921196 12.269419735366252
306 102 0 28.903746814757795 22.573865720179086 41.792117781877565
307 102 1 26.494481661578337 24.63726915098457 44.10757778852923
308 102 0 26.644228933932677 28.275571085119406 42.55563157745306
309 103 0 34.34597007693053 10.907717079341564 16.001201938632423
310 103 1 41.26031568716119 4.823895455705718 17.395443995955386
311 103 0 34.80537450158877 7.720021727751025 20.663742834673982
312 104 0 33.46353216447558 7.909660601729641 12.849274583591242
313 104 1 37.80651107079291 8.346695032487704 12.014412523046575
314 104 0 31.695030152686687 13.334818103718172 13.553393387546066
315 105 0 31.652875532296022 38.69923104915197 12.419023961489101
316 105 1 36.00730757878997 39.026721929998196 11.319690350405638
317 105 0 38.66881972194383 33.08862869862928 11.881996975174447
318 106 0 21.705216930335656 35.84383106027477 38.719454830764235
319 106 1 24.61144612047341 40.92943020563247 41.71781631435927
320 106 0 22.185785921910963 39.32744267553987 35.033444050713754
321 107 0 25.39965868309922 32.00522986697317 8.087903715724787
322 107 1 26.285820244263608 36.12278441764269 6.178860995060365
323 107 0 30.076747956167285 36.444368256735885 6.605516357797154
324 108 0 23.32827104142202 19.7469990023115 20.487012533586995
325 108 1 23.28542568085921 11.575752426388407 11.318062189208142
326 108 0 17.233378388983542 20.545107159266603 19.841164662927806
327 109 0 44.169584260920075 27.33750233916828 39.289441378286035
328 109 1 44.94847687988883 24.880762269673152 42.08647047163477
329 109 0 40.7781261055924 23.89939249082862 38.201894847669806
330 110 0 18.546109147182694 31.84888699994773 5.080087583512959
331 110 1 22.900586241592137 35.78011362521901 3.56998023038472
332 110 0 23.797627566939184 38.502762504516646 5.305799838963092
