ITEM: TIMESTEP
54
ITEM: NUMBER OF ATOMS
333
ITEM: BOX BOUNDS pp pp pp
0 50.0
0 50.0
0 50.0
ITEM: ATOMS id mol type x y z
0 0 0 27.153478361157003 25.536337458580828 32.15365844138712
1 0 1 26.998795151023433 22.92855238905094 32.94455646658383
2 0 0 26.030364779372626 26.8832524764553 35.842191951310944
3 1 0 25.559732927019347 43.435333621616685 9.99574283679772
4 1 1 26.834775080667082 43.82071383507817 6.41477310926026
5 1 0 23.04698171875497 36.50839979014454 12.27274639813775
6 2 0 40.891213637619664 26.762752707829147 37.4966237003586
7 2 1 38.413626503304314 24.352662622092687 37.81188341949715
8 2 0 32.63292966199541 25.5570802363988 32.3974815065971
9 3 0 15.445705345986461 28.6618791459001 21.140243628820336
10 3 1 14.250568917409423 35.04865350115275 23.004899040248016
11 3 0 16.602499919816204 30.006580987956106 25.980445567078696
12 4 0 33.324272229555525 20.471008296532023 27.904048889053797
13 4 1 33.96480594522753 17.890468853178913 23.55898748073125
14 4 0 34.18777149327971 14.722965429640023 25.309860364960556
15 5 0 19.45960593315511 11.37281589185837 28.809683621195575
16 5 1 15.877784131946337 4.105598894066341 40.62344441201328
17 5 0 17.25930187598116 18.446344970458178 28.717003126768013
18 6 0 40.02478428634226 40.36209768520706 2.890330833381168
19 6 1 45.979234384710246 39.73481512256617 9.098603886902383
20 6 0 27.172214497512353 35.45292863475109 16.446828512171507
21 7 0 32.507185303390486 7.234893628468158 36.21542571037986
22 7 1 37.72899183252419 7.172130292028263 39.92057970207698
23 7 0 32.338362546598795 14.345604447388054 37.27946302056977
24 8 0 3.887724913221727 20.34358388094502 20.05508695135591
25 8 1 3.610576756921655 14.98419045470156 8.932989291970248
26 8 0 5.882505971578116 12.77846319568452 9.742419015932262
27 9 0 15.225656302339274 14.966762682115682 19.49290664589715
28 9 1 9.614290411718224 19.036191833303334 12.86564846902475
29 9 0 11.53461450277607 18.715419843612278 21.95516339119583
30 10 0 31.182910229958036 18.93014476892069 9.20975860315098
31 10 1 34.7978150156563 16.04975718196356 9.837345332303313
32 10 0 35.98605201636841 25.337366478162807 8.67983208404222
33 11 0 28.521079541823273 44.460966128858416 13.133876072254381
34 11 1 34.67402962821491 46.58405230536455 13.236418238679796
35 11 0 33.89320825957302 43.437709205012276 16.199594633423125
36 12 0 36.35671184499742 39.85089698944044 12.76457280078595
37 12 1 41.98889823677914 38.05468818907826 10.766876841952588
38 12 0 42.01325319170207 34.57721849208662 16.831656565433203
39 13 0 34.48413032336532 29.366527698284326 44.27415857330842
40 13 1 35.74377881024738 25.77083095493918 46.39580159214541
41 13 0 35.08293607109349 24.63943744628215 43.20717235990912
42 14 0 11.12864302154992 26.779263042717435 24.333381571846576
43 14 1 13.524775007955547 29.440267868905025 22.295487038296415
44 14 0 12.268162299854195 26.581979161084895 23.460166283875214
45 15 0 30.223690274003335 34.25946759561235 27.661258182350373
46 15 1 31.7609987975888 22.448329480326766 43.54976176648055
47 15 0 28.90374981967898 21.924167957712974 44.305962181897826
48 16 0 43.61035512704906 35.825696969772146 38.94163203379282
49 16 1 43.88506345733909 36.051937448922196 45.848362925269285
50 16 0 37.597454729429316 37.33731642408834 39.69812066907065
51 17 0 42.310360799909105 20.20243152766717 27.816917829910594
52 17 1 45.037610236755754 23.289363838104 24.640153985814962
53 17 0 37.39692111462063 25.701160210423133 23.974794824013
54 18 0 38.37399986318425 11.345359241437974 27.050150536136883
55 18 1 34.32451358112537 6.456886095247112 25.910811997371066
56 18 0 38.30174713286051 5.023294129307219 22.976377840923682
57 19 0 31.81437064961595 11.630908315621575 13.248442671130517
58 19 1 38.2581779540612 12.260014134899379 15.767672050874168
59 19 0 40.13413217974017 16.57008364672507 13.268786972276978
60 20 0 11.47578423258485 42.28601834513674 30.435960990593877
61 20 1 12.909712795347298 44.88807353964968 31.09012808278576
62 20 0 25.470294248189145 36.01233579098499 36.25663451714785
63 21 0 11.000379411695569 40.23723609222631 30.281828129825648
64 21 1 10.300948831565986 44.262555023588895 34.57212235540267
65 21 0 12.784518708165036 38.65047210721206 30.93154932517393
66 22 0 26.683992929720993 19.077526490601983 11.18248912732937
67 22 1 31.74907182483959 18.28646617460555 10.465991989251934
68 22 0 26.601276353994628 15.596156590003861 14.59940375989268
69 23 0 42.474858508460684 14.136691482562437 35.902854422796814
70 23 1 46.55716878659716 11.131069700349638 33.92352687538293
71 23 0 40.73399323957426 9.143036110485436 34.54048323537865
72 24 0 34.87874698979255 28.994118979279747 39.61604474677877
73 24 1 38.83193956677217 31.397909720336994 41.69071793333375
74 24 0 34.88913058197772 32.452488551663755 36.07121152095189
75 25 0 46.83496835742954 35.37580916910372 11.627340580303729
76 25 1 45.626636168646414 35.96373177578333 12.089034832582124
77 25 0 39.3421052045146 34.172066696193596 10.160446762333704
78 26 0 20.685944203441878 15.348996465873924 26.597735048305385
79 26 1 23.547449167398973 13.751681070809843 28.57133051903526
80 26 0 27.517523332116248 12.143513282359724 28.13355908930927
81 27 0 23.09982883843372 15.175668716894096 11.211534283032776
82 27 1 26.378486069808687 10.448438763602528 9.802838327490917
83 27 0 19.02165693220193 7.566873857362804 17.089854847683192
84 28 0 12.970773220307882 30.007010582449446 32.172449891297255
85 28 1 7.84771095753114 27.49636383495503 29.158585578642484
86 28 0 14.633401391675873 25.110026403862705 25.989883817104058
87 29 0 27.264802154940142 29.977082241031983 21.178365347854125
88 29 1 31.897291314760878 35.70676909373044 15.9545619584412
89 29 0 31.702002208482476 30.115394038834516 17.181886826590784
90 30 0 48.222846637502045 19.415661948187484 40.35827152843405
91 30 1 48.06903072416922 14.426674105492188 45.28291112586528
92 30 0 47.87317354789157 18.904160252032863 43.00132924665924
93 31 0 26.099667897082185 4.2557034201105335 14.981233871402104
94 31 1 29.559596582856656 3.6525836705162624 17.626542573334337
95 31 0 28.148180927775865 12.60503614041659 19.967114549139925
96 32 0 11.635632138836003 38.1151381938295 11.484307962038478
97 32 1 8.551176279437582 39.28395575517364 9.68694238317604
98 32 0 11.500942114524769 34.225853439095054 8.725044544869698
99 33 0 43.803944765387676 40.05768112919802 24.405478628058994
100 33 1 43.56716070814736 37.66843017074545 19.513877826691285
101 33 0 38.13213646607686 31.326258261235434 26.0838924393131
102 34 0 1.9865317522250976 29.755910245313512 14.39191333769441
103 34 1 1.016711655363179 35.238726016175505 9.944981955304268
104 34 0 1.4890293503783945 30.041189878365067 13.928196518512602
105 35 0 34.09575153669856 29.427281350563625 21.36585551712794
106 35 1 38.66775889242961 30.853684916441605 20.089817297935713
107 35 0 33.2785011657 26.08898266323992 18.90132797455163
108 36 0 32.990958986733055 40.31867795034865 42.51628123603555
109 36 1 37.34588334335355 46.88250551033592 46.4979850271796
110 36 0 32.36872695123141 43.43630430430751 36.93288883318355
111 37 0 15.070331630098831 18.890055547916745 32.38046778532261
112 37 1 14.056377853892291 19.49483483178723 29.020821497156852
113 37 0 13.809538275076264 19.19145373630359 25.065190475726514
114 38 0 8.86547154296533 21.519136981237114 21.263057999246186
115 38 1 6.0349215919126395 26.08924177931199 17.285572571410775
116 38 0 8.782717997937127 31.124465343266372 18.10413671928562
117 39 0 20.547210743249728 30.809905818215306 17.482785520046626
118 39 1 24.68651975307501 32.80478770535721 16.018301056966003
119 39 0 21.64284129403425 30.555947649271854 21.62428105332572
120 40 0 19.823778765087837 43.72242589300873 24.603066586868795
121 40 1 22.865601823818512 43.016315437282074 24.16915347095772
122 40 0 25.420562806627654 38.80036896135094 27.96617131990131
123 41 0 34.939496700983746 31.701010870804204 14.406585296978134
124 41 1 30.923320215024944 25.502938273264938 14.461331520408073
125 41 0 30.204130551812 32.17119984107351 19.9728871772539
126 42 0 23.29701524933307 43.749956064371126 32.45364585643239
127 42 1 23.60626966146972 47.193710975555305 30.056530989213833
128 42 0 27.06396606298531 47.01166406327855 32.04526836606747
129 43 0 3.5413990712081698 22.343696266421684 15.047120391184954
130 43 1 5.096964296395064 20.641756723815188 14.858652723139098
131 43 0 11.593419260557965 17.29113822719478 20.56648662088268
132 44 0 10.979193841982713 20.37139933001288 36.53088559815771
133 44 1 9.464328727890122 21.22237106575102 44.17009772719062
134 44 0 8.534950994399201 26.16889328619769 44.47449498314177
135 45 0 28.608598516790185 5.943250796970728 3.543981608976312
136 45 1 30.066681841896227 3.6894836789065484 1.4803705123411672
137 45 0 29.22982503304786 9.51560025797947 1.7521110097964387
138 46 0 4.472595911546876 8.641653179091787 25.074528675432557
139 46 1 3.801348751912486 8.318166518178499 29.54295297232725
140 46 0 21.085482488393545 18.327226804513653 34.26395932431033
141 47 0 32.93610352864084 16.113598568186088 39.541360234291076
142 47 1 45.05200825170702 5.8301846396605645 38.60091394904916
143 47 0 40.08014643804343 6.4111719146870305 37.56693066665902
144 48 0 5.860483315631636 20.619814356130178 8.04127829411566
145 48 1 3.906978225948291 17.52858009055538 3.622454582537984
146 48 0 10.116324517136892 18.15277976842518 6.475077816809227
147 49 0 19.480733122978183 24.752266033701723 33.52836300864182
148 49 1 14.940578304741695 20.306109814813155 39.392067868928606
149 49 0 20.717666379963834 25.004977968392694 40.7445695256698
150 50 0 9.0734123427606 47.32895832275251 12.577924362035112
151 50 1 7.700760453519593 46.11028092461036 13.053824632945714
152 50 0 15.379927730500727 41.76364587535463 17.924301427419696
153 51 0 23.90147673603153 31.66345512912316 13.558770304059362
154 51 1 19.26634920565864 35.517158306579695 12.389755281482772
155 51 0 16.82682802491475 33.07117721122909 12.911676210424426
156 52 0 45.95035008225505 27.348731710346637 38.9934257479062
157 52 1 46.88249517455146 31.02938111152499 42.146139406378474
158 52 0 46.96598746220186 32.80499796468209 40.59795271064499
159 53 0 13.561545782365249 21.86125816622608 11.449655548438571
160 53 1 6.458720346778766 15.921255517650911 9.364729535550428
161 53 0 8.753229047436546 13.815040429120243 13.161107299034253
162 54 0 16.803617430896047 33.38521359321132 33.76397314554683
163 54 1 15.591120612614926 31.83474132482765 30.178105383508353
164 54 0 21.583571864085084 28.650434418772367 29.533536762120185
165 55 0 7.469489866815429 31.844155917232417 20.36261076734696
166 55 1 1.3605415941687715 40.40291060423152 23.06134742725443
167 55 0 8.394110562473346 32.663236678558526 23.48666222651458
168 56 0 7.730357252864122 19.676929754505213 26.533213646540915
169 56 1 5.7884331959848945 13.9410721885614 23.080645322871245
170 56 0 5.5388333704862855 14.34836416777288 25.887091523614593
171 57 0 17.343523109763524 20.78309518733832 33.439656803399764
172 57 1 21.979517842293717 44.45496316533536 43.46218044869602
173 57 0 19.0005472220288 19.899516286779253 29.35909368435909
174 58 0 14.518722162821769 28.286263537121926 34.9289832601214
175 58 1 17.139835670317677 26.663583875822365 41.856406723419845
176 58 0 15.059654668593758 25.44164763576015 35.04458249477182
177 59 0 10.781019920676735 3.320444419145753 10.797628294544381
178 59 1 11.916075138533445 8.10166552668127 28.67615123923522
179 59 0 15.97364622836226 12.56312655582327 32.42859076047161
180 60 0 23.230427324222376 44.48311630054059 7.8899897185320595
181 60 1 28.25656100111857 46.72773933241475 3.4196566030268953
182 60 0 23.33188884333306 5.839824059575813 11.868372367059642
183 61 0 21.449561358220876 29.522710546755267 27.591201524842884
184 61 1 21.50541102252558 26.679482924112545 32.636903120636745
185 61 0 17.759444969859036 23.987421516854884 31.10658106295542
186 62 0 12.84014792838648 47.63797392509492 40.203956209713574
187 62 1 8.746026199013471 48.25165349502362 42.18051153820068
188 62 0 11.956778469979875 45.89487783505625 39.206556569270994
189 63 0 45.239878410288284 11.635582112710368 17.395987210954626
190 63 1 44.743975772266964 5.84350491654145 10.911301380277912
191 63 0 40.30709422169493 12.79642772564241 11.256746084555894
192 64 0 41.63533065184823 13.696974239333532 26.90781334832559
193 64 1 43.21105701044031 9.387504616670816 31.73778532994565
194 64 0 39.212299017131876 8.007018513579444 32.7204602527493
195 65 0 6.49279377350348 35.506131298697376 29.36484276986879
196 65 1 6.328915064092811 41.74165579307772 34.68193838718904
197 65 0 30.21031815173951 19.858826047825122 29.476737722721058
198 66 0 30.26876453754932 27.47545183418254 35.9468768467718
199 66 1 22.992138185214785 20.390442368136146 46.44359753368899
200 66 0 19.927338589995735 19.218030102928065 44.450739765649125
201 67 0 9.465385941626066 14.123888131099527 31.393296054860695
202 67 1 4.938389911614803 4.934299094140764 47.636680735107255
203 67 0 12.50684195062513 12.75781327263945 29.928570610910384
204 68 0 23.997176118178757 25.219052399062257 26.46104010891214
205 68 1 18.776662888990952 29.417473826005157 30.918209820219808
206 68 0 18.683798624740103 33.571380750939 28.636364912643156
207 69 0 45.300335032382954 40.63618311615511 37.98181187902231
208 69 1 47.57375208006581 42.61014205459077 36.88163388152727
209 69 0 45.438545986662234 38.13448303563669 31.60680222267063
210 70 0 21.06117968889725 33.194094539450475 43.99449769916581
211 70 1 24.228639385301047 36.149806034038065 46.35425059461977
212 70 0 21.12007882675371 30.809589720130464 43.469696530363464
213 71 0 45.52643796209024 25.38657274370727 25.310763184942086
214 71 1 46.88767672220889 21.756456392803706 20.673530767695652
215 71 0 39.97920569927622 23.762332011525164 22.574328298087405
216 72 0 32.74051398382131 10.136976539316251 12.737544814434857
217 72 1 30.34085747665361 11.322410351753827 9.902394161013984
218 72 0 32.72337727947753 9.710778159530303 12.45372550480714
219 73 0 17.648527526992503 37.901710236872084 15.55512959048792
220 73 1 20.105251811776018 40.86170871849506 8.560763251842374
221 73 0 19.028989180790816 37.08159162430813 10.402525300581285
222 74 0 24.87522422690942 30.149767671079857 12.05464774837578
223 74 1 23.0122386658795 32.69397640157455 7.153030956842787
224 74 0 24.279306264303898 27.6822745611761 12.89111149740442
225 75 0 11.88252572964279 23.302090713361412 22.209864793100895
226 75 1 7.283172761101748 20.131363050854635 21.34781085749513
227 75 0 8.69136476234994 16.438637993990504 24.23301458919831
228 76 0 23.75188862122074 38.61619859849426 13.806609349418293
229 76 1 6.845818297460396 10.76799588997568 19.566000617583757
230 76 0 30.751327311395695 33.392493743984154 12.190053128134306
231 77 0 12.89379012054089 7.229664164787444 23.740241131763355
232 77 1 11.557820499672065 2.960955968284429 24.857964133255397
233 77 0 16.98592098135261 5.562483277417588 22.450480834024198
234 78 0 5.4385112187459015 10.550912660416062 6.007533308002257
235 78 1 6.004579881392588 12.656297404996442 4.5947527432508615
236 78 0 5.412558623789164 18.430628962246796 5.120289789754478
237 79 0 12.711726702600203 16.561842751109367 22.403161574257727
238 79 1 9.49461246432405 11.677731885431356 22.508167433302045
239 79 0 12.552084921728143 12.513853062551684 25.682670980046566
240 80 0 42.93147363906932 26.23681574745966 34.62322769945346
241 80 1 43.96531116745936 22.278608345070268 41.634143302786406
242 80 0 42.26881377531175 27.09285031904701 41.35621766434139
243 81 0 25.740609226487663 30.35296227662042 22.603941441613575
244 81 1 25.775551075847883 9.209805235192093 35.88298112532131
245 81 0 26.154043008884695 10.611744982458632 33.65904636147126
246 82 0 38.65197359803857 2.1904911914392287 8.52091349059117
247 82 1 45.249057486932486 1.6974825623573844 10.247271921948007
248 82 0 31.855985010416273 27.457548677538455 14.961742720890157
249 83 0 19.611544439104318 31.28872225114452 40.88283143827354
250 83 1 15.84773988422167 27.031877182617755 43.567494077145874
251 83 0 16.317663340829313 49.539326533675194 16.28184524178505
252 84 0 16.677008231015197 32.87088510325942 21.250439733627235
253 84 1 16.33088522153947 39.69987251940314 23.41596510354106
254 84 0 17.393521383710816 35.870662139395385 27.321569259634277
255 85 0 47.04856389219104 41.214679591726764 29.457021963373958
256 85 1 46.54882413626189 38.68556639484829 31.895025619881114
257 85 0 40.565039345339635 33.72722950319544 27.907517785233363
258 86 0 28.8966006042805 33.090075648577475 37.91551014383635
259 86 1 24.883422735998117 36.956950048829746 41.289226672743766
260 86 0 21.225997792068643 34.182592219419064 41.640666220838526
261 87 0 20.72215998056854 4.773840797206916 17.955767800995563
262 87 1 15.950139223098118 4.979490634361854 20.19279984110084
263 87 0 13.714569166168335 9.384518761014798 18.83667517841874
264 88 0 42.04367401543773 17.66486709974876 16.54277003935788
265 88 1 44.2404162955101 19.177120241556008 13.301999273925588
266 88 0 38.6104573226811 20.203954518904634 10.938109903080074
267 89 0 41.40739280088598 30.340598077936995 40.96153898370463
268 89 1 39.50554914502095 34.87886784245819 45.904566860724046
269 89 0 35.25843900860727 37.02095217432421 44.77877938328291
270 90 0 33.416703200653494 12.87226345188939 10.576188181937162
271 90 1 40.1660181888445 7.759863066085467 11.76998175628404
272 90 0 35.05693025522436 9.664269975186023 16.352868671700428
273 91 0 18.45506190556839 9.61571075607874 7.381860799964991
274 91 1 16.529379601060644 6.857880552514245 10.060596763000508
275 91 0 16.90921340162083 27.9024387875875 30.17519940670418
276 92 0 20.740541627912034 23.379459246778502 28.531733437787874
277 92 1 9.362710377336873 33.545631507200554 32.369325074852874
278 92 0 5.382805341229022 30.53111508098192 41.313113584255284
279 93 0 17.400290004753657 10.411698499487233 13.218023262677889
280 93 1 20.983414519821398 9.636325108247663 8.611580064320298
281 93 0 24.685920931037664 12.070101407588107 14.632449734816834
282 94 0 27.22264984212287 39.383461851592266 32.900369966464716
283 94 1 25.083661622074384 42.9144677674849 36.429900719782474
284 94 0 20.334943459873774 41.583142309434535 38.39490554462963
285 95 0 14.47265106365803 15.81814395304346 40.959685072847925
286 95 1 10.198828237536382 17.344655618478505 44.38368342951207
287 95 0 16.29178149231221 16.865087418887654 39.75081816325077
288 96 0 17.729447681051557 43.736180564556925 20.672483670859446
289 96 1 15.158678420793803 42.2568104984465 23.894816067430707
290 96 0 20.26970893759479 36.38725574611614 24.54204375534299
291 97 0 27.9491473191704 6.231049908346272 11.831417295518458
292 97 1 31.584080659838918 2.4534794968242575 5.408623986896588
293 97 0 31.710042673307267 9.98626638241226 10.374201730797706
294 98 0 19.983103973239498 38.77631375210971 37.178739735798004
295 98 1 17.281141175734504 38.77832647117462 36.25279036739155
296 98 0 15.104650186299766 39.69349562934162 33.3427057228263
297 99 0 29.557058082510295 23.959556471526053 37.912136105717515
298 99 1 31.30273863404742 23.82513531645863 39.359754942928845
299 99 0 32.864084332868636 25.284269576219373 33.52283804955535
300 100 0 11.064856148019517 37.37700716793028 37.295036170325396
301 100 1 4.890953938120591 41.27705018741849 42.504090104755306
302 100 0 4.734360886614632 37.14492732521384 36.81811099262055
303 101 0 34.671631336899225 16.01612879982088 4.479261905691795
304 101 1 40.63884102928393 10.171243340601377 3.68336810630954
305 101 0 43.06291175171328 12.461402162276215 11.778712668767437
306 102 0 28.788197374307728 22.672964444057854 41.90310563861567
307 102 1 26.50214623438327 24.64201489034058 44.09598300960181
308 102 0 26.637122117543115 28.10055840165197 42.63016101133099
309 103 0 34.73906900076207 10.561712718408737 16.080665898906137
310 103 1 41.21333626568213 4.855568932806711 17.401835764208368
311 103 0 35.16394650878634 7.559241508495109 20.482025203534757
312 104 0 33.67909955607859 7.93086718909038 12.807806866905697
313 104 1 37.77274461454278 8.36251594915408 12.022265250395256
314 104 0 32.036440847903094 13.056223086729139 13.46742884230343
315 105 0 31.870559851264233 38.7151398235137 12.36416094539295
316 105 1 36.00274074441152 39.00568284381584 11.325098880233657
317 105 0 38.52437605741868 33.410125887117964 11.851637029660852
318 106 0 21.86252367195372 36.11910234645469 38.88175075347787
319 106 1 24.59326943676661 40.90672136195105 41.68467652359093
320 106 0 22.319298762649492 39.41559304465741 35.401404261993534
321 107 0 25.444422227543583 32.21234111699869 7.991910666567083
322 107 1 26.294299959464187 36.110807961609794 6.1861262975430185
323 107 0 29.896414191263514 36.42890307669095 6.5853036511384175
324 108 0 23.32530566879328 19.269811035390912 19.95144317736592
325 108 1 23.26328161687371 11.638631225426227 11.382939983951147
326 108 0 17.590633741180728 20.01628986012572 19.338768108789267
327 109 0 44.20693481771248 27.221529059500373 39.42212665871868
328 109 1 44.93228994967954 24.884595952616255 42.0652991321452
329 109 0 40.99871983983953 23.9511309391718 38.40748714012565
330 110 0 18.778746038171523 32.059138531000606 4.999651594170299
331 110 1 22.888620481760398 35.774706919411564 3.579893121850973
332 110 0 23.7563836304124 38.37904396355579 5.227546176324867
