ITEM: TIMESTEP
56
ITEM: NUMBER OF ATOMS
333
ITEM: BOX BOUNDS pp pp pp
0 50.0
0 50.0
0 50.0
ITEM: ATOMS id mol type x y z
0 0 0 27.147793417753274 25.431793815702665 32.183607819454544
1 0 1 26.996140971405143 22.94741908692071 32.95168565669033
2 0 0 26.078520926677086 26.68592506678928 35.69817364278351
3 1 0 25.618519673018035 43.45377946858539 9.831165319480577
4 1 1 26.81788424153325 43.794045036297796 6.445499965291867
5 1 0 23.258436136680483 36.91661882983817 11.94573519046281
6 2 0 40.78016433578536 26.655238442119007 37.51029468610616
7 2 1 38.40093098202268 24.36345996093525 37.79264935961224
8 2 0 32.947090265795154 25.491838422847806 32.69153975345704
9 3 0 15.38249753096629 28.999625880059863 21.23884698439601
10 3 1 14.262197800170513 35.01107845628596 23.00845070370269
11 3 0 16.479626957723514 30.27002503352605 25.825015979534843
12 4 0 33.35635101649802 20.341732517495895 27.68649870202138
13 4 1 33.96343307350443 17.889568238492714 23.57754939209916
14 4 0 34.177658487207076 14.866651357778629 25.230420431636173
15 5 0 19.253595032785466 10.95577900398711 29.488558665456516
16 5 1 15.895694433949949 4.184085715798969 40.53752215302108
17 5 0 17.178752351925446 17.607589793547916 29.41288442052772
18 6 0 40.34959141127798 40.32733446359559 3.2313331036178887
19 6 1 45.88980453015671 39.721239905615356 9.104348608170241
20 6 0 28.27833100655478 35.70494732413432 16.01386664941085
21 7 0 32.78058414679716 7.23182287973306 36.409452824225134
22 7 1 37.69326940697579 7.1971403556419355 39.899326834466684
23 7 0 32.63651506458058 13.948515387737892 37.425486907076504
24 8 0 3.8720950695327727 20.03841350173129 19.422125433865123
25 8 1 3.6177996100962972 14.997261369393803 8.97473692441566
26 8 0 5.783497988910713 12.87480117700152 9.707585156374451
27 9 0 14.914361180523722 15.19257132407239 19.125594821770022
28 9 1 9.640367839905082 19.02098276930793 12.919997105432337
29 9 0 11.428708355607801 18.73295836055542 21.45289842068253
30 10 0 31.365319100227758 18.78207916528762 9.256461339051194
31 10 1 34.79090684657523 16.090708624608236 9.831436887957596
32 10 0 35.920057247059674 24.822780779003594 8.743953944742666
33 11 0 28.844624757751287 44.57258580761529 13.139289131928031
34 11 1 34.651448867398564 46.56760587875739 13.244995728217926
35 11 0 33.93095510605478 43.589235718870086 16.0569429191457
36 12 0 36.64997347688948 39.755693419784954 12.658483374449494
37 12 1 41.970616258750695 38.0489843111126 10.79354027820879
38 12 0 42.01163269632281 34.76242291481595 16.508948478711627
39 13 0 34.544753162802486 29.19371164364005 44.37642826048625
40 13 1 35.738145382987646 25.778514796124668 46.38053652383643
41 13 0 35.112458124484526 24.689319185306918 43.34915536152765
42 14 0 11.241141514556743 26.90607953266148 24.237578773835796
43 14 1 13.514209821928905 29.424581292826243 22.304731487784846
44 14 0 12.324708958087468 26.706129936114944 23.408049696520017
45 15 0 30.313774241646954 33.565749422626524 28.594460972421057
46 15 1 31.747870842480516 22.490260819768668 43.49348953627977
47 15 0 29.023731491241133 21.946946758584758 44.273168932437244
48 16 0 43.624770246655984 35.83773813323573 39.30803414482678
49 16 1 43.86254761698374 36.05560620928552 45.80433357254281
50 16 0 37.94334463175459 37.26659508392839 40.03619172579389
51 17 0 42.44724406412459 20.3577522900779 27.657140478390996
52 17 1 45.00311714147179 23.28786063010609 24.647874081568688
53 17 0 37.81192445432123 25.56996285465622 24.011107631164762
54 18 0 38.1615045948119 11.088591981824068 26.99020386606487
55 18 1 34.35025997349183 6.468428966443682 25.905353887285234
56 18 0 38.10229966291293 5.095374909883186 23.123655424271444
57 19 0 32.157210371780316 11.664676499914671 13.382246103545475
58 19 1 38.24270992695307 12.271534021028618 15.751421945251275
59 19 0 40.03878526249628 16.352020023229453 13.395012361298255
60 20 0 11.536736630186883 42.395548770554 30.463747583818822
61 20 1 12.951492186773386 44.84903035725992 31.107139616306867
62 20 0 24.74090934725602 36.527509099553804 35.95661391214263
63 21 0 10.963919748778594 40.4451499988259 30.502913199658124
64 21 1 10.311492384823564 44.2308588964191 34.54615708526412
65 21 0 12.652277817771196 38.94970886564199 31.125949507485938
66 22 0 26.938059118124812 19.038062363171356 11.146327425044626
67 22 1 31.715658216297168 18.2804301813114 10.48101504346309
68 22 0 26.875950864214122 15.73964403068383 14.378902096163177
69 23 0 42.68212889973317 13.984209185952443 35.80240124167059
70 23 1 46.52526247006137 11.134132431417425 33.931816054218984
71 23 0 41.037271360466406 9.246542237039742 34.50834242723281
72 24 0 35.076125512594515 29.113933749550107 39.71984122683775
73 24 1 38.80650665824912 31.39391899328643 41.665570471188325
74 24 0 35.098657826166026 32.396523384311166 36.36976219317143
75 25 0 46.80928841003993 35.38624640419117 11.635316567939281
76 25 1 45.60741688708502 35.957144479675335 12.082153332444996
77 25 0 39.67534380155353 34.26696300648874 10.26261542670665
78 26 0 20.818826704738782 15.27500179532978 26.68843700680432
79 26 1 23.55105562846656 13.75147324351977 28.56438710576284
80 26 0 27.326938088499762 12.22083358525958 28.153950400328362
81 27 0 23.268844951652472 14.931229383525272 11.13914584302902
82 27 1 26.342097984733897 10.453573452443575 9.832948072620741
83 27 0 19.43484628226043 7.729130523603843 16.68045916143595
84 28 0 12.702119076749689 29.875087769662006 32.01407525557825
85 28 1 7.887453331816832 27.496522837333195 29.157748404911747
86 28 0 14.26617156720671 25.239398438253236 26.161654062839784
87 29 0 27.520121151801437 30.292760328375593 20.890477671915217
88 29 1 31.880706981994468 35.669133453839564 15.976489084334913
89 29 0 31.712074567200425 30.40189282381721 17.118940869139433
90 30 0 48.214739920940815 19.14999598573377 40.619975076435914
91 30 1 48.068937729696955 14.45719042861196 45.25940899111635
92 30 0 47.88276975547387 18.68156379012942 43.11566058780661
93 31 0 26.266430972498203 4.226987676288165 15.10887255599037
94 31 1 29.544301740989763 3.6853625321816073 17.6266765210629
95 31 0 28.226134512303112 12.109288407332073 19.837333617519217
96 32 0 11.494236259532892 38.169336405562255 11.402334578991562
97 32 1 8.56955229351228 39.26423084919199 9.688968083862804
98 32 0 11.348322709054516 34.48725199395962 8.774605072359337
99 33 0 43.791630538788965 39.935960504995464 24.157298341421626
100 33 1 43.5488617818849 37.65377754955866 19.5524182164737
101 33 0 38.43723530644388 31.682423675335087 25.715431182996046
102 34 0 1.935318332115458 30.048358768699085 14.154986161552882
103 34 1 1.0215005717124626 35.20337956573129 9.972889807019573
104 34 0 1.463618343501971 30.314284095699016 13.718597730074947
105 35 0 34.32264603089269 29.49845958469228 21.302870590322208
106 35 1 38.63554116402193 30.833299642018964 20.08978500399837
107 35 0 33.567090311801465 26.34396731800065 18.964831034031462
108 36 0 33.22997771696074 40.67913497623264 42.734564452481905
109 36 1 37.31340021192756 46.84784226906333 46.450609160571695
110 36 0 32.649438370300714 43.630459693776615 37.47261961605236
111 37 0 15.025282930349864 18.916523385307325 32.228405978002215
112 37 1 14.058429497318597 19.49233543417135 29.018738369274363
113 37 0 13.821755306039975 19.204977576263072 25.250582413637837
114 38 0 8.716042387230836 21.761026734099307 21.052909940753228
115 38 1 6.053086497429712 26.090347245898545 17.301321994700878
116 38 0 8.641462652075532 30.864857553457963 18.062302089218996
117 39 0 20.751166558399422 30.90829032937846 17.410099398534534
118 39 1 24.663700518124795 32.791200865626664 16.041373036196415
119 39 0 21.80399715899032 30.674953644924713 21.32783329989408
120 40 0 19.95452376553238 43.69168931461366 24.584860615586518
121 40 1 22.865780099973946 43.004482541914506 24.182672645216726
122 40 0 25.286972425123576 39.020432541742764 27.768067731271138
123 41 0 34.72399848259044 31.36879748532745 14.409778323750732
124 41 1 30.934359219328183 25.546576318597026 14.480040777846908
125 41 0 30.243798171210244 31.8056895307285 19.67050851462551
126 42 0 23.311484271023467 43.91382722985358 32.33944613684678
127 42 1 23.615481510579144 47.18291980458617 30.069499483178774
128 42 0 26.90210779280059 47.020456550299976 31.951972068568633
129 43 0 3.598473911684064 22.282143131567718 15.041749057903035
130 43 1 5.1158651799502755 20.634009039121377 14.878720755018982
131 43 0 11.233902102272948 17.4766560497339 20.25077207347486
132 44 0 10.897097193174872 20.41783783957994 36.94456287953312
133 44 1 9.46654978709017 21.23492380355755 44.14522612034495
134 44 0 8.581489875497969 25.921689434591368 44.45876157945065
135 45 0 28.672502017390894 5.842914328994286 3.4538526795287257
136 45 1 30.059975129639177 3.7145482431284806 1.486897410723063
137 45 0 29.273207318965067 9.21492064715119 1.7377533073077547
138 46 0 4.4412305007775155 8.626661864359432 25.292201143717122
139 46 1 3.8668548049905778 8.355902506095031 29.54672946737897
140 46 0 20.068747364361737 17.738440742425666 33.98586559217242
141 47 0 33.63833423625124 15.51736141310786 39.48676808186775
142 47 1 44.99262837307401 5.869256537624682 38.60110359418238
143 47 0 40.328000559784165 6.382252279761517 37.61848909391818
144 48 0 5.760170293672585 20.461282338820364 7.81461650538359
145 48 1 3.933823627408712 17.54055983617611 3.646073964085557
146 48 0 9.787110865664745 18.11967037084142 6.323815000776151
147 49 0 19.232076214741088 24.50870662973238 33.849970304063504
148 49 1 14.975547289180996 20.337131748358956 39.37653646889363
149 49 0 20.406816828981786 24.75217796735249 40.67146029280053
150 50 0 9.030682604540946 47.292803625118715 12.591536554445465
151 50 1 7.730226207118991 46.09737268513371 13.069969488349686
152 50 0 14.951204878217597 42.00633548720091 17.65237222869421
153 51 0 23.66008507738341 31.86398322224893 13.497918715077278
154 51 1 19.274609346247082 35.49778559115901 12.395017792437871
155 51 0 16.936044074947908 33.180591705067314 12.888333175804624
156 52 0 45.99674984181606 27.531697551252208 39.1500625317007
157 52 1 46.87978793116741 31.02199727839199 42.132794242435516
158 52 0 46.96298148747496 32.740206840647666 40.6547846162529
159 53 0 13.16772892807335 21.53167606316593 11.334238405862887
160 53 1 6.490408512003835 15.935329549227383 9.3835363771379
161 53 0 8.639678347460489 13.919760167467441 12.972851443434566
162 54 0 16.746530591802028 33.311917708582 33.594641044581365
163 54 1 15.6145374910679 31.828769597697544 30.186541818027287
164 54 0 21.265940697250482 28.819324463930453 29.567866058943352
165 55 0 7.126445669270347 32.32482439896567 20.514251825964866
166 55 1 1.4065786020407502 40.345805571939536 23.053361906305405
167 55 0 8.00056160453414 33.096249055085416 23.462789440681647
168 56 0 7.627114467513725 19.37190250398907 26.34943157555562
169 56 1 5.794283574164733 13.961260799969915 23.099272216249762
170 56 0 5.548403894653815 14.330423599563685 25.772881763467645
171 57 0 18.663818098471012 21.042324501919772 33.43952184611617
172 57 1 47.415989338643676 27.958690006477365 37.853569170959595
173 57 0 20.221447722687238 20.212310016034408 29.603197119100834
174 58 0 14.659655168660581 28.199148045883195 35.30192798311762
175 58 1 17.11986556680859 26.666195171326663 41.81594092356439
176 58 0 15.170719899238737 25.506742119738966 35.40859802566864
177 59 0 10.847831814934864 3.600666247910786 11.844226673324373
178 59 1 11.925440631490417 8.099067172614436 28.623372275257683
179 59 0 15.756959357390937 12.324509357752486 32.226477253587895
180 60 0 23.49780805056809 44.59917138011574 7.652528200864011
181 60 1 28.22131820586002 46.56638786921709 3.466313881103966
182 60 0 23.62841092218634 8.305433089593457 11.359275564230904
183 61 0 21.452281716265727 29.376239747029018 27.850869702025495
184 61 1 21.49365222139352 26.680298022700406 32.615950977750316
185 61 0 17.94491608658088 24.120812802572463 31.18217351990422
186 62 0 12.641090030541866 47.66860248797253 40.30065786824918
187 62 1 8.768477414498772 48.24244917200994 42.1652395676336
188 62 0 11.79661776762483 46.01152192480363 39.354208635649506
189 63 0 45.2123951007623 11.318093611908838 17.040088932753257
190 63 1 44.73057799386434 5.887017314863607 10.934698450466895
191 63 0 40.54896960887206 12.417776076096693 11.238293530682661
192 64 0 41.71831114676245 13.469297310327246 27.163001355940043
193 64 1 43.19370641149098 9.397993881372237 31.725329107288008
194 64 0 39.4044322073709 8.073617464011559 32.67299657918569
195 65 0 6.485941854769727 35.84360790559609 29.653776551325866
196 65 1 6.418759378910852 41.63866219329664 34.64442102062508
197 65 0 28.7796185449892 21.169223397637786 29.788077885638163
198 66 0 29.84898295940827 27.066862018900984 36.551938007292456
199 66 1 23.00947629320588 20.41255699360274 46.4000592217921
200 66 0 20.069702784948777 19.272776378559474 44.54229756968453
201 67 0 9.20070666468603 13.586001238041966 32.343748510421484
202 67 1 4.982742971000536 4.996641955631289 47.5122369569603
203 67 0 12.061872138786331 12.298215129522973 30.96921926203051
204 68 0 23.713442758679715 25.447528186139593 26.703116403101486
205 68 1 18.794089610752028 29.415989589127346 30.896079454230037
206 68 0 18.6887210188551 33.36666338458783 28.748368427846398
207 69 0 45.39840499396826 40.72099853269641 37.93482007788672
208 69 1 47.50278229661287 42.5961971667504 36.867834640318115
209 69 0 9.364343011589288 43.240208417870505 33.128019886653284
210 70 0 21.21761288253752 33.341307073482845 44.111328994309325
211 70 1 24.208551804397878 36.122946413489395 46.3373959658298
212 70 0 21.285043218781915 31.09212262225613 43.62257285473288
213 71 0 45.596887631846904 25.198337064652325 25.070350237380126
214 71 1 46.86008302006486 21.77494436165888 20.694926305201886
215 71 0 40.35025984190135 23.65468852383091 22.472357664217263
216 72 0 32.628986640314956 10.193616620812925 12.606714548876504
217 72 1 30.354719006526715 11.314308518686435 9.918001086404228
218 72 0 32.61327501129573 9.783676022758367 12.334864644239982
219 73 0 17.78180631818414 38.06237354744324 15.175719296855842
220 73 1 20.09369144602643 40.84036662881868 8.590025222005194
221 73 0 19.080668074165825 37.262422974539284 10.313731002492101
222 74 0 24.77973362082795 30.28105465966419 11.802761349741226
223 74 1 23.022489101407732 32.668874714313056 7.188139377899675
224 74 0 24.210750408414306 27.95255590807428 12.581293118117737
225 75 0 11.646984083512248 23.139474733346834 22.165850454559454
226 75 1 7.30224921506744 20.130072708443166 21.359503654274583
227 75 0 8.621735150234848 16.62195267578674 24.089946752978022
228 76 0 22.741354407456864 36.949887131514494 14.150947794740368
229 76 1 6.998442042469868 10.956735026561347 19.516872512941465
230 76 0 29.319839367646406 32.03893652354106 12.631676051420985
231 77 0 12.828226194421744 7.021699763934457 23.794873295890536
232 77 1 11.57973251535894 2.982502848218497 24.8466467884852
233 77 0 16.700895168078993 5.425690629992278 22.576942474324284
234 78 0 5.460097529108278 10.633883481010793 5.953338133553917
235 78 1 6.001332416254478 12.669721036764457 4.599813483533038
236 78 0 5.442935575787255 18.132836134860327 5.0934704416896395
237 79 0 12.545853743015245 16.31013947608399 22.408472433057558
238 79 1 9.514245531188886 11.69601046854144 22.51743885658534
239 79 0 12.403931574572413 12.473084391312348 25.529064597185183
240 80 0 42.98765564892065 26.021677733661882 35.00453655513238
241 80 1 43.95656943146542 22.307306229565313 41.609475608151236
242 80 0 42.35368358709934 26.852009664464408 41.37012795664974
243 81 0 25.742695559454823 29.098403473517703 23.391825836459763
244 81 1 25.77628703949692 9.291717032650302 35.82846225961278
245 81 0 26.14018150800455 10.55571409903985 33.74346516025449
246 82 0 39.000454188650245 2.1664899310910113 8.612783235222905
247 82 1 45.177341241210144 1.7950932637446835 10.259129978580622
248 82 0 32.65418161864342 25.91921943410328 14.679968559919633
249 83 0 19.415393518446056 31.06625670590067 41.020913707925956
250 83 1 15.863989801766685 27.022160917088346 43.446195310424876
251 83 0 6.7983867835006 13.25838628051986 7.483058258029417
252 84 0 16.65855109696672 33.23561562130296 21.366254241566097
253 84 1 16.335361926571753 39.66501964230552 23.421211134539917
254 84 0 17.339304339591646 36.065939992021164 27.12224811968283
255 85 0 47.01135419784085 41.09354477099747 29.566652659532004
256 85 1 45.72620587278341 38.3661156789141 31.796318907939472
257 85 0 40.87579606425534 33.992157224304684 28.123764176907333
258 86 0 28.685216004558978 33.29336291188922 38.093043406507796
259 86 1 24.88545572631763 36.93578410298891 41.279213729646706
260 86 0 21.404867757968272 34.31788406937453 41.6233094843655
261 87 0 20.481118222152055 4.784540844493848 18.068589244462586
262 87 1 15.958176254150779 4.992628214948993 20.181507141778923
263 87 0 13.827017595721586 9.163613982668243 18.904515692350298
264 88 0 42.14813368282379 17.736811174710333 16.38859235175002
265 88 1 44.21554724650365 19.175972221774018 13.303927249755935
266 88 0 38.903904236388954 20.15038009674 11.061438139488173
267 89 0 41.30585958709295 30.582272816257372 41.22449496923505
268 89 1 39.4987193500992 34.87042498175636 45.884668476096984
269 89 0 35.4692127100182 36.91435780486734 44.83421131061269
270 90 0 33.785992235522265 12.592433865177778 10.641767182449708
271 90 1 40.124828482409924 7.783963114575793 11.781278789469726
272 90 0 35.32902107604161 9.563335967229632 16.108343100299674
273 91 0 18.362804978018872 9.485106453786152 7.511682003553682
274 91 1 16.536550412401745 6.944525244965786 10.127524880790926
275 91 0 16.886697151495078 26.646706610817223 28.974521779905388
276 92 0 20.080826348837764 23.96829342350962 28.754969793764904
277 92 1 9.38996191606974 33.4983519820631 32.386661097961856
278 92 0 5.60649054216437 30.69875668892834 40.812505284277435
279 93 0 17.585354500396946 10.37176478003614 12.980482071364193
280 93 1 20.984298591674865 9.64699589227346 8.64664347302896
281 93 0 24.486683402065747 11.93927573412131 14.308927861792922
282 94 0 27.113577282078623 39.56271770549774 33.07983817066807
283 94 1 25.075465167314327 42.89907821273447 36.42491017206128
284 94 0 20.575164397661613 41.65012887711035 38.29527185987379
285 95 0 14.253828048240267 15.89556748304519 41.134889134764705
286 95 1 10.233034539933849 17.338173391845764 44.35712077043511
287 95 0 15.963317650183336 16.891293689648123 40.000624273080234
288 96 0 17.60579915243432 43.66472140992204 20.827712845036576
289 96 1 15.183752450165944 42.241271846982656 23.887287128166985
290 96 0 19.99323096165016 36.70499833230646 24.50684410887448
291 97 0 28.147279273126948 6.025410224770764 11.481507337075232
292 97 1 31.572141262829692 2.4922627184070745 5.447581139534649
293 97 0 31.70287241301272 9.57145064347505 10.100825528157207
294 98 0 19.872588946874096 38.77690271882666 37.13966630586733
295 98 1 17.281762168348703 38.780901780869705 36.2469010695643
296 98 0 15.205227479332192 39.65170048271279 33.47600865300182
297 99 0 29.61777056511816 23.954320750103754 37.96501466887898
298 99 1 31.30402239237877 23.83022030052927 39.337412797652796
299 99 0 32.782829299646814 25.20816224729395 33.82737536244738
300 100 0 10.724823933640359 37.591627480421785 37.58168498208887
301 100 1 4.91167351816487 41.24989983166979 42.467272425747886
302 100 0 4.742877204445241 37.36471140461541 37.12054882035474
303 101 0 34.99791035637722 15.696901404953762 4.436398198298654
304 101 1 40.62680174295764 10.19903059158184 3.713841112472041
305 101 0 42.92926278489347 12.33603501287486 11.334003315254805
306 102 0 28.683430604927246 22.76330716198344 42.00355296580265
307 102 1 26.509075937803335 24.646305764533782 44.085499748423175
308 102 0 26.630991325049845 27.941579701741052 42.69744601181407
309 103 0 35.09434518830852 10.248193192057723 16.153279909449278
310 103 1 41.170912364988986 4.884172656681202 17.407604821297983
311 103 0 35.48761070567611 7.414634433568581 20.31714314716459
312 104 0 33.87337821086984 7.95073085998708 12.770488635498417
313 104 1 37.74238989076356 8.37678715291386 12.029344798907122
314 104 0 32.34530535319231 12.803632905823918 13.389629560110302
315 105 0 32.068421333052534 38.72864740927859 12.31449163418727
316 105 1 35.99865135635718 38.986701647612485 11.33004860317777
317 105 0 38.39272431889211 33.70159136492237 11.824286098376568
318 106 0 22.00464989363809 36.368234501608256 39.02771487210394
319 106 1 24.576853918866767 40.88621434782301 41.65474579329799
320 106 0 22.439812688008043 39.494649714692756 35.734349796390426
321 107 0 25.48552863939891 32.400188070531726 7.904924758161658
322 107 1 26.301966344218656 36.09998034140587 6.1926947768258715
323 107 0 29.732747995068454 36.41432101791916 6.56723067827686
324 108 0 23.321429717888876 18.839120959687893 19.467757398895788
325 108 1 23.243284432911146 11.695408501692581 11.44152178413147
326 108 0 17.91444543535537 19.538598063047957 18.88521967796218
327 109 0 44.24025024723247 27.116407299144356 39.541790867963876
328 109 1 44.917645931703426 24.88801593721256 42.04616451634286
329 109 0 41.1985382835033 23.998325004816717 38.59345710983923
330 110 0 18.98982214310639 32.25018414010971 4.926969352494883
331 110 1 22.877805312329805 35.76982390966775 3.5888563681046337
332 110 0 23.718292644889765 38.26615053193104 5.156737018412875
