ITEM: TIMESTEP
63
ITEM: NUMBER OF ATOMS
333
ITEM: BOX BOUNDS pp pp pp
0 50.0
0 50.0
0 50.0
ITEM: ATOMS id mol type x y z
0 0 0 27.12947985566925 25.103426574886083 32.27923620408256
1 0 1 26.98771465436863 23.00704680104656 32.97435301793221
2 0 0 26.231691881935916 26.060237501787757 35.23989528011863
3 1 0 25.80028817549344 43.505144338913 9.317619942334307
4 1 1 26.762688410721207 43.71090622279666 6.542954196186945
5 1 0 23.929608900823926 38.21490973253388 10.90940167530548
6 2 0 40.41930183593914 26.313512477551775 37.54783040498357
7 2 1 38.360809369219986 24.397625735876996 37.73182402566145
8 2 0 33.94986833978318 25.28691215313934 33.627161251540386
9 3 0 15.1838427341163 30.067072788320434 21.55599649741412
10 3 1 14.298885826537523 34.89250605541588 23.019648418962067
11 3 0 16.090619634913786 31.099611728308798 25.328999448489014
12 4 0 33.45866937023247 19.927129433493658 26.995859290442965
13 4 1 33.95908916255442 17.886736891870044 23.636254646639642
14 4 0 34.14484169242585 15.326557420525983 24.981777565423997
15 5 0 18.600773062792044 9.652098568343915 31.628455087978573
16 5 1 15.952163158470043 4.431618719951223 40.26657349054906
17 5 0 16.928078030714538 14.950736942671934 31.608168320612627
18 6 0 41.354258852088456 40.21045052258212 4.326372203363268
19 6 1 45.60759653225503 39.678364784290814 9.122608752510343
20 6 0 31.7927490977358 36.50415612009827 14.63214428349661
21 7 0 33.64219877353653 7.23118019641306 37.02243284806073
22 7 1 37.58056968495856 7.276115298140127 39.832288304168316
23 7 0 33.578071968185945 12.685562097199675 37.88513462241662
24 8 0 3.8249960531307 19.06467115904973 17.408672063551546
25 8 1 3.6406122972871477 15.038615482863197 9.106773113717974
26 8 0 5.468316259826139 13.187739441900826 9.608926252611177
27 9 0 13.927330268259283 15.910020816744154 17.970316840753625
28 9 1 9.722627180666583 18.97300454476372 13.091425301451169
29 9 0 11.099745427117544 18.78313609628259 19.865358073326448
30 10 0 10.899467539095838 13.264898620801953 17.8090711302722
31 10 1 34.65801677555533 16.24522031921488 9.916480253396857
32 10 0 35.70054750081999 23.191897217458845 8.95339668852908
33 11 0 29.872946386682433 44.92420402496962 13.159743860445833
34 11 1 34.58008726193396 46.51568276161084 13.272049115223375
35 11 0 34.04441863421052 44.06839980936232 15.603638360915065
36 12 0 37.582443520720716 39.45034722590929 12.331727111242428
37 12 1 41.91285522689593 38.030938371513145 10.87770319569913
38 12 0 41.99937860110893 35.35399872125705 15.484613661955072
39 13 0 34.73702478824966 28.64309742136815 44.69905936081007
40 13 1 35.72032825406271 25.802841003792317 46.332272877828416
41 13 0 35.205296485038275 24.850739035376563 43.798786859629274
42 14 0 11.59645347353564 27.307612733341923 23.93493281680219
43 14 1 13.48086038122233 29.375118982640036 22.333918170502205
44 14 0 12.503556879611716 27.096021039300133 23.243395849642383
45 15 0 30.59714668672074 31.35736606068709 31.56527957274824
46 15 1 31.70622370722661 22.62286851393066 43.315531928321
47 15 0 29.406784700429185 22.03346519516003 44.14988734047937
48 16 0 43.662555346060344 35.87763090532199 40.46423328550813
49 16 1 43.791474515192576 36.06719201335851 45.66543940141744
50 16 0 39.04292537454373 37.04140790078068 41.10230967487582
51 17 0 42.87326887429513 20.854535706281236 27.1483112752962
52 17 1 44.894338845145406 23.28344784634803 24.67219029431154
53 17 0 39.1290133511337 25.14873500204846 24.130565186281157
54 18 0 37.49007063166113 10.269931639179227 26.796016592684204
55 18 1 34.431583656381314 6.504909693240265 25.888127281180623
56 18 0 37.472553590068614 5.330341716135261 23.593472246871453
57 19 0 33.252221048538956 11.783115915769399 13.797977268390683
58 19 1 38.19383321004272 12.307954167773964 15.70005693815664
59 19 0 39.72720460190369 15.656833384060109 13.793860699709924
60 20 0 11.744483404910508 42.73456067687809 30.557840114387606
61 20 1 13.083696892433496 44.725561911260776 31.16096780742018
62 20 0 22.41803937614756 38.16405567925156 35.00106412223411
63 21 0 10.850605763651819 41.09881544036069 31.200028020259374
64 21 1 10.344778407237806 44.13081310738083 34.46419645484892
65 21 0 12.23316577210868 39.895766011927016 31.738970879631253
66 22 0 26.181370315681256 19.9666905364733 13.594634752134162
67 22 1 2.2866850692860052 27.704615912270313 49.744710570821056
68 22 0 26.15450013861055 17.311059210510944 16.18874046252901
69 23 0 43.334284813989925 13.497529777861702 35.483906905176994
70 23 1 46.424539450260795 11.143780464959505 33.95797752235898
71 23 0 41.996853645971335 9.578959927792257 34.408392337999956
72 24 0 35.69828629885469 29.495232221471984 40.04328798505052
73 24 1 38.72625801045579 31.38137222807724 41.58617388245563
74 24 0 35.76041057148391 32.21595377908266 37.31660150929108
75 25 0 46.71997582574936 35.41902605442786 11.659914386124072
76 25 1 45.5466804925536 35.93622754796773 12.060320882473695
77 25 0 40.736632670056295 34.56860879028695 10.58749155802765
78 26 0 21.247091376647834 15.037290697473317 26.976762312157373
79 26 1 23.562438548814757 13.750818889001456 28.542463004996662
80 26 0 26.71654697357802 12.469014934447726 28.21640530394468
81 27 0 23.796559071927 14.150435478667942 10.91850851158321
82 27 1 26.227220709413757 10.469705388639598 9.928029045544127
83 27 0 20.745231371625607 8.251722001208266 15.379653678582185
84 28 0 11.85644262994753 29.452559049614422 31.506435176352173
85 28 1 8.012909241811261 27.497006565429498 29.155083155744254
86 28 0 13.104534468286186 25.654162390155605 26.711936729160065
87 29 0 28.331842839672298 31.28981029389377 19.97642893395142
88 29 1 31.828095245068987 35.55067099987356 16.045362310112157
89 29 0 31.738567055298358 31.304122326043572 16.92537249900436
90 30 0 48.18885258456889 18.31030230282803 41.448835353393925
91 30 1 48.06865590772012 14.55341126967764 45.18523176580345
92 30 0 47.91317098982129 17.981719681256685 43.47363888541619
93 31 0 26.795236113850933 4.1462639073219965 15.517673285232048
94 31 1 29.4960109161866 3.788963561258876 17.627141718068803
95 31 0 28.469979811497776 10.532388883774994 19.421093372309702
96 32 0 11.048594467522374 38.33691957821842 11.141775547230404
97 32 1 8.62755522459274 39.20188023919187 9.695300858008553
98 32 0 10.865920876174183 35.31727223558927 8.933833569459505
99 33 0 43.7455390905108 39.54090016010008 23.376708843927204
100 33 1 43.49104525966788 37.60743967081657 19.674085796758224
101 33 0 39.408395958068645 32.81889931175032 24.54935764279287
102 34 0 1.7738393898643272 30.97142460313308 13.407251493010415
103 34 1 1.036611133026493 35.09191723433596 10.060899813446206
104 34 0 1.3833221558352744 31.174613665570618 13.058171257288517
105 35 0 35.036271067111336 29.71936534664784 21.10218397260518
106 35 1 38.533912533478244 30.768934438306907 20.08962965833463
107 35 0 34.47952267880389 27.152899069556643 19.168006583336908
108 36 0 33.98259166432353 41.819751252355786 43.414936341677155
109 36 1 37.2109468640806 46.73853701332727 46.301153556370835
110 36 0 33.536077518455116 44.23872980801391 39.183538218408174
111 37 0 14.881945949490548 18.999923004969094 31.73888718905646
112 37 1 14.06485258796728 19.484506061669027 29.012180980337718
113 37 0 13.862319486692634 19.24684768950752 25.845019343224756
114 38 0 8.243922704409751 22.537661053030035 20.384860349619046
115 38 1 6.110485833159826 26.09384173328278 17.351088639675634
116 38 0 8.19519772328625 30.032385826599647 17.934085980734356
117 39 0 21.394760813281454 31.217998652166273 17.18507618729239
118 39 1 24.592179551466124 32.74861817901668 16.11404871141371
119 39 0 22.31192193895016 31.051128291981364 20.387152227195067
120 40 0 20.374616557505597 43.589028780203776 24.530844747886096
121 40 1 22.86630842280329 42.967068365174846 24.225433135668695
122 40 0 24.858452364325174 39.7217221376281 27.13790522244961
123 41 0 34.038023811765626 30.321490095003842 14.427163631903246
124 41 1 30.969036202757895 25.68417590980513 14.539064902229365
125 41 0 30.37527964672798 30.651447681884083 18.708770648015633
126 42 0 23.360528006544047 44.434783472084014 31.978031732961544
127 42 1 23.644598372197496 47.14880092561167 30.110497982336916
128 42 0 26.38719628203795 47.04542084098645 31.65741108533335
129 43 0 3.789400288862653 22.080193354013268 15.030622453752478
130 43 1 5.175538105990984 20.609622603962332 14.942206709528083
131 43 0 10.08810533368234 18.068796179446533 19.246117951018253
132 44 0 10.634619507390491 20.571839555621402 38.26167949150022
133 44 1 9.473568940614179 21.274587461054175 44.06662870442687
134 44 0 8.73157922690047 25.133356579488538 44.39919741521699
135 45 0 28.873664507188554 5.529576813688471 3.1696257922508635
136 45 1 30.038849747907683 3.7937519162935223 1.5074034367737164
137 45 0 29.409974969589616 8.261058091365772 1.6936818533747253
138 46 0 4.36390624554669 8.591991824280507 25.99196743790068
139 46 1 4.073866871136698 8.475155996059668 29.558683758253594
140 46 0 16.833864622934776 15.865049544402321 33.09484113527574
141 47 0 35.86621841331933 13.620968157908408 39.31170405953916
142 47 1 44.805365796090676 5.992707854266896 38.60179264005087
143 47 0 41.096337017515275 6.3034022867830934 37.78253819855796
144 48 0 5.448582142543637 19.95848404957732 7.097949962762906
145 48 1 4.018586541040383 17.578347167563138 3.7206158063766965
146 48 0 8.7428334930538 18.017983802909956 5.848061827175141
147 49 0 18.448971107977112 23.740379935248168 34.874551275592815
148 49 1 15.085880891011877 20.435013680145765 39.32750795422446
149 49 0 19.424597662741068 23.95437424705883 40.43130721158814
150 50 0 8.900189129056571 47.17549967454664 12.637756122192663
151 50 1 7.823586654536454 46.056378745022606 13.121187542479117
152 50 0 13.587928384109242 42.77955329379737 16.786665398003493
153 51 0 22.884692669425988 32.51472123409411 13.289206318990868
154 51 1 19.27271322602132 35.589626328659854 12.237673554261377
155 51 0 17.288984351208725 33.538917905496874 12.801871925810401
156 52 0 46.14493401687379 28.115445217849285 39.64652464976835
157 52 1 46.871218043745486 30.998610011201556 42.09051912267475
158 52 0 46.95268739551552 32.53078513174198 40.833635800637666
159 53 0 11.917445300058054 20.480285488110802 10.971708100715444
160 53 1 6.59039968960672 15.979724119357066 9.443419887983879
161 53 0 8.28734262486965 14.25989270390141 12.376912527153191
162 54 0 16.571444737923546 33.07512546139039 33.05498915754897
163 54 1 15.688560899546614 31.809876980377403 30.21318470479341
164 54 0 20.256091676327507 29.358597831640328 29.681449051498628
165 55 0 6.045790937609788 33.841931321219406 20.99681061024055
166 55 1 1.5517615208110964 40.165716013862784 23.028174878844816
167 55 0 6.7582865064714115 34.460575435973496 23.38322414471655
168 56 0 7.298508772738516 18.40201281032977 25.76720814169971
169 56 1 5.812844222453538 14.025199129040866 23.158034971329844
170 56 0 5.57978682922218 14.27747241318872 25.41505426889685
171 57 0 24.474645316796256 22.438523134370467 34.326183208252964
172 57 1 46.709700692951024 27.77362499904807 37.693789865536765
173 57 0 25.71057598241244 21.777590663899666 31.274255483659893
174 58 0 15.225604286251167 27.910460916363174 36.37009913828273
175 58 1 23.89589993186549 0.9321229176687444 34.872136658458615
176 58 0 15.640621395855057 25.70883039778064 36.44856067084568
177 59 0 11.066454380914793 4.499150226481104 15.180986149103939
178 59 1 11.955094606158537 8.090937126115827 28.456769893501754
179 59 0 15.063886410574169 11.556122457011208 31.555392662731226
180 60 0 24.338702689037923 44.90649280907298 6.912719955953692
181 60 1 28.10944235968183 46.05714306141646 3.614313617152024
182 60 0 24.4630167808702 16.16483526219605 9.851962401035536
183 61 0 21.456670868376627 28.9070220957141 28.67550298849976
184 61 1 21.45650165941934 26.682880132377893 32.54973893643181
185 61 0 18.535117650956824 24.548548829417204 31.417036055875275
186 62 0 12.012941935718024 47.7643195254245 40.605100692548106
187 62 1 8.83930889859841 48.213392952457085 42.1170447265323
188 62 0 11.29146518136242 46.38071660147393 39.82089134019474
189 63 0 45.118987251099036 10.317797379707685 15.908695789513814
190 63 1 44.688309770487294 6.024316159234529 11.008531683583476
191 63 0 41.31877594135067 11.221535683265929 11.188372176733644
192 64 0 41.97778102426329 12.743017750654731 27.97640521787219
193 64 1 43.13935132684169 9.429815875052954 31.684273627455852
194 64 0 40.0144792765245 8.290653578487138 32.516319563707455
195 65 0 6.499896848374112 36.8812122459241 30.56235079541166
196 65 1 6.702425870454181 41.31376348490746 34.52621619160965
197 65 0 24.226834830054422 25.329898599777994 30.770745746882543
198 66 0 28.509166002014176 25.765037861791864 38.47510041658406
199 66 1 23.06427347861706 20.482463964133103 46.26240766246776
200 66 0 20.532727423338557 19.45605826659372 44.82158014172614
201 67 0 8.370953257419705 11.887801950704459 35.338341186236846
202 67 1 5.1226109685961285 5.193234006996827 47.119810613798734
203 67 0 10.653736618941753 10.850942683869244 34.25345021154505
204 68 0 22.81022210437394 26.179892175707472 27.470806865575867
205 68 1 18.8491869764931 29.41129107261541 30.826122578798973
206 68 0 18.710787602531052 32.709469915913125 29.09967066059517
207 69 0 45.66231806056988 40.978743446297095 37.785966245011956
208 69 1 46.99795909678138 42.588461137477765 36.82919648911213
209 69 0 17.17842548521561 43.107700440801125 33.89662311240589
210 70 0 20.916946689667473 33.74460422767656 44.294781283689204
211 70 1 24.14094867425571 36.03743924082538 46.28296776499725
212 70 0 21.806090794140395 31.986453930745718 44.10576903617522
213 71 0 45.80987877684072 24.598158737334238 24.309207354673102
214 71 1 46.772960485466086 21.833263156709254 20.762430212622057
215 71 0 41.52857457009871 23.31681686637206 22.153757142110933
216 72 0 32.277093171399734 10.373839684152959 12.194789385279318
217 72 1 30.406060349534467 11.294157795135039 9.964206652318717
218 72 0 32.26610410255706 10.01203485136044 11.9591227856127
219 73 0 18.204474573059525 38.56925047324996 13.97118822584137
220 73 1 20.057198087919826 40.773106862216906 8.68245223965367
221 73 0 19.241865948014045 37.831774465328444 10.039404979879905
222 74 0 24.478641118252398 30.69233428111831 11.010491307220715
223 74 1 23.0546390482658 32.589876648464035 7.298526317729209
224 74 0 23.955093116224326 28.852449723699387 11.52526780912162
225 75 0 10.898869953142876 22.61761925949265 22.029069803773588
226 75 1 7.362531573865487 20.12599047288383 21.396458239442783
227 75 0 8.405335970382756 17.209138991423128 23.63549193077632
228 76 0 19.56651595139845 31.68651272837301 15.234070444008667
229 76 1 7.479734358338025 11.55191402601771 19.361945011167602
230 76 0 24.79386958301491 27.779315392826327 14.027050828907853
231 77 0 12.62552197288306 6.364713258264778 23.965808730656622
232 77 1 11.648942606014867 3.050465699142123 24.810914307627513
233 77 0 15.796229887472323 4.995233724933512 22.977787593711305
234 78 0 5.5283782437542275 10.905851071240853 5.780773615479918
235 78 1 5.991059674881953 12.712095862767843 4.615828858041615
236 78 0 5.538692638755828 17.18273170092743 5.009346722057046
237 79 0 12.021597146367652 15.510696362968194 22.428621482748206
238 79 1 9.57623966461865 11.75376091105507 22.546684444590827
239 79 0 11.936646579826105 12.348445520963223 25.041181239056456
240 80 0 43.164365546005136 25.343231987200323 36.217108040120564
241 80 1 43.929119343671246 22.39818374274192 41.53160632441806
242 80 0 42.62197971856708 26.091972081745045 41.40621271515288
243 81 0 25.750502014285047 25.10814780323716 25.895229960365818
244 81 1 25.786098790939825 9.556085881812672 35.64159411017936
245 81 0 26.136914951363394 10.323213558009412 34.06190908408704
246 82 0 40.08657934802129 2.1275784067068715 8.911034132693546
247 82 1 44.95113900351189 2.1033345972194617 10.296656292976698
248 82 0 35.186989931696715 21.02592457764888 13.781207132682528
249 83 0 18.91954328120152 30.252417663322063 41.102537573601275
250 83 1 22.110170726807702 19.93495037733313 1.844131533067947
251 83 0 8.805946865999296 16.00438134223306 14.550325835251853
252 84 0 16.60111819501376 34.391160548905894 21.739321726791278
253 84 1 16.349483300146726 39.55502084872523 23.437734641100874
254 84 0 17.16736520584606 36.67860076419771 26.486179321320755
255 85 0 46.8055223028353 40.662372544577444 29.912220467383626
256 85 1 45.68337810282046 38.34277963725522 31.73278205011109
257 85 0 41.76589468615641 34.79631904342434 28.7946747239435
258 86 0 28.00805451856915 33.937170031527714 38.65855839886848
259 86 1 24.891890027306314 36.868883313400346 41.24756292871026
260 86 0 21.979146811698797 34.74420175886051 41.56410348893936
261 87 0 19.71095275019244 4.823770835378433 18.4262574199137
262 87 1 15.983582767871226 5.034157840749061 20.145809044405137
263 87 0 14.190692486293822 8.459905377543178 19.11793434616296
264 88 0 42.47440553531973 17.966764646444176 15.89562242515832
265 88 1 44.13694639785364 19.172358888117223 13.30998793163776
266 88 0 39.835251300956315 19.978244154600763 11.457430244058084
267 89 0 40.97738979801285 31.354296337641085 42.060249627508725
268 89 1 39.477124333031206 34.84374502147325 45.82177820733525
269 89 0 36.14305143983045 36.569200597974174 45.00476543939923
270 90 0 34.95311296780664 11.705213655024975 10.856347736388477
271 90 1 39.99352302468734 7.86051658789637 11.817221142544735
272 90 0 36.17802139353136 9.271495276958756 15.353731939686876
273 91 0 18.069609206164643 9.096786392614192 7.951211443072116
274 91 1 16.55918320197074 7.218331389529741 10.339099821749782
275 91 0 16.81764307729566 22.654068583555652 25.149792589308426
276 92 0 17.974973243481273 25.837930031962856 29.479065401298996
277 92 1 9.476009336411376 33.34907341551821 32.441362934553844
278 92 0 6.335895431218102 31.217187468579787 39.212743989928875
279 93 0 18.17830700937525 10.247779450180849 12.232595772751955
280 93 1 20.987123049844286 9.680689548502265 8.757339426907645
281 93 0 23.84832006221066 11.524114689444385 13.28520506718412
282 94 0 26.760491459748472 40.131999826247 33.65376461718161
283 94 1 25.049555500166615 42.850432022461895 36.40913466347948
284 94 0 21.34282567713532 41.8592257847937 37.9736951047631
285 95 0 13.566532279043404 16.139734014872406 41.68532862285139
286 95 1 10.340923509147833 17.317770040989252 44.27334758418447
287 95 0 14.924442454557344 16.973265943280815 40.79058583899521
288 96 0 17.218304342899792 43.43053801436852 21.32234207041075
289 96 1 15.26298698526182 42.19209759754015 23.86352525329258
290 96 0 19.116467586097155 37.717840622509385 24.39100415218423
291 97 0 28.777124132676345 5.381840520205662 10.376039676330734
292 97 1 31.534489442339094 2.6146086578920875 5.57046404804789
293 97 0 31.675549909245156 8.2573812906869 9.240355052094973
294 98 0 19.51798235264478 38.78001616199599 37.01139373378363
295 98 1 17.283710146714082 38.78901775804426 36.2283380242952
296 98 0 15.528660617680945 39.518726291534485 33.90129392650611
297 99 0 29.809801313883423 23.938470223939056 38.12906025959145
298 99 1 31.30825001939149 23.846340963096814 39.266657056899724
299 99 0 32.52314661431054 24.966140699740247 34.795185751987695
300 100 0 9.643298231882412 38.26874236547593 38.48582841471157
301 100 1 4.9770818828487275 41.16424942730393 42.351126434239625
302 100 0 4.777860433808678 38.05799318384501 38.07475469984541
303 101 0 36.0395530426901 14.6842086277879 4.311180747486806
304 101 1 40.588620629973306 10.28684497232034 3.810018182698758
305 101 0 42.4956905036181 11.945171553617818 9.919907428388333
306 102 0 28.34992933589273 23.054326311227495 42.322031173545
307 102 1 26.53135650882447 24.6610332724747 44.052404248382295
308 102 0 26.744254017666076 27.756428718405846 42.98016599750677
309 103 0 36.10571246087958 9.388463812487718 16.355234724021688
310 103 1 27.862270840706763 37.654887818072076 15.397333480048626
311 103 0 36.39092793939311 7.119657325229434 19.780364562036173
312 104 0 34.483647533281804 8.017928673449838 12.653624749210309
313 104 1 37.647846798459135 8.421647778247456 12.051592152457717
314 104 0 33.322458950565874 11.994179682198334 13.15007613238366
315 105 0 32.70175147851998 38.76527955736369 12.156887813771318
316 105 1 35.98578466397309 38.92659822974389 11.345542603604335
317 105 0 37.968860629285885 34.6291641042049 11.738461510702255
318 106 0 22.453481300394373 37.157874737402516 39.48414349360767
319 106 1 24.52505913018749 40.821523852782185 41.56029234281584
320 106 0 22.819647150315614 39.74034273578486 36.78923718180226
321 107 0 25.619973013238752 32.998581235357044 7.628369271541529
322 107 1 26.326219830726902 36.06572857578454 6.213474255739608
323 107 0 29.210625322504136 36.364048566201596 6.511440642172829
324 108 0 23.30164931877248 17.481978684737424 17.940809808558107
325 108 1 23.18734962297382 11.873320055060704 11.618832699027285
326 108 0 18.945184952173506 18.03046635032431 17.454441006994095
327 109 0 44.34273739721508 26.782254826931826 39.918329129679286
328 109 1 44.871214889094645 24.89842096257346 41.98565715995138
329 109 0 41.833137156226265 24.1503363440964 39.182382751726976
330 110 0 19.662749546572506 32.86125519608066 4.69738800928902
331 110 1 22.843621430131897 35.75441773172231 3.6172121275363205
332 110 0 23.592092835674773 37.901660797823624 4.932340877602301
