ITEM: TIMESTEP
65
ITEM: NUMBER OF ATOMS
333
ITEM: BOX BOUNDS pp pp pp
0 50.0
0 50.0
0 50.0
ITEM: ATOMS id mol type x y z
0 0 0 27.124569741065056 25.016572398489842 32.30475481306905
1 0 1 26.985448806749588 23.022853565152843 32.980337731370625
2 0 0 26.272713392198096 25.89311129558755 35.11711584404474
3 1 0 25.847473480589326 43.517043284851425 9.182989543745457
4 1 1 26.74852760184487 43.68841949161846 6.568658988506458
5 1 0 24.108986593763603 38.56273998633172 10.632822857326673
6 2 0 40.32037005692295 26.22198292583696 37.55617903614538
7 2 1 38.35013455672552 24.40673077973203 37.71562714685604
8 2 0 34.2195909893775 25.23275968257954 33.87795093809327
9 3 0 15.13143430466243 30.351063480584052 21.64184369778745
10 3 1 14.30862800016539 34.861007797072865 23.022619775299827
11 3 0 15.986934189694207 31.319490600566912 25.195699317563893
12 4 0 33.48616662281284 19.8150691272406 26.81117421559898
13 4 1 33.95793153618117 17.885987608963866 23.651891721677405
14 4 0 34.135866228923426 15.450606602114986 24.91626988788336
15 5 0 18.42659900653251 9.309469439471163 32.19607412482854
16 5 1 15.967145720140834 4.4973223944078935 40.1946668191993
17 5 0 16.862531159503607 14.242105738394939 32.1910556211424
18 6 0 41.6151940475425 40.17730772814091 4.6227653774641375
19 6 1 45.53264051334813 39.66695224705852 9.127519396239123
20 6 0 32.73112723009164 36.71956663013014 14.257713897528513
21 7 0 33.87071996445491 7.233575098547041 37.18543737026584
22 7 1 37.55064175307101 7.297112066824847 39.814489980481255
23 7 0 33.82839140588208 12.34721928586637 38.0069059427555
24 8 0 3.8131360501415106 18.80285775864293 16.869126764719002
25 8 1 3.6466824722480076 15.049631983443229 9.14194042696384
26 8 0 5.383731529837212 13.273492501538815 9.58591095439226
27 9 0 13.663811822209128 16.10198779204617 17.664560881463235
28 9 1 9.744466756602463 18.960267148148503 13.136935398763868
29 9 0 11.013875269778387 18.794978185396015 19.44295475319878
30 10 0 12.557607538938123 13.473772419089858 17.25815803440835
31 10 1 34.55866045662357 16.25942944402078 9.947072782026074
32 10 0 35.63211310419367 22.755690436484127 9.014825078028972
33 11 0 30.148234258637274 45.017453761648454 13.16613074537925
34 11 1 34.56109513077772 46.50188129531243 13.279231232528176
35 11 0 34.07300522157785 44.19597811961375 15.482338761720996
36 12 0 37.833260381286586 39.36792423673412 12.247493566009958
37 12 1 41.89749255506007 38.02613534014276 10.900077408101525
38 12 0 41.99405608271698 35.51322317990433 15.210753106650568
39 13 0 34.788390239083874 28.495330147853725 44.7847888749653
40 13 1 35.71558152973213 25.809329493373028 46.31941983240004
41 13 0 35.22988962150344 24.894697787713504 43.9187203847202
42 14 0 11.690812809432483 27.414812307628395 23.85452316549091
43 14 1 13.471985744327798 29.36199447527504 22.341683934227074
44 14 0 12.551376610941011 27.198883252735957 23.199462485724
45 15 0 30.672138618769026 30.765094710506176 32.36204788301142
46 15 1 31.695085216659443 22.658177311812125 43.26814918862927
47 15 0 29.51003191951872 22.06075077837139 44.11131528442999
48 16 0 43.67040896832793 35.888763246144244 40.77130908471188
49 16 1 43.77258726111467 36.070272624812766 45.62855988440515
50 16 0 39.337331357093376 36.981011906216004 41.38530829442915
51 17 0 42.98477413914569 20.98842385806496 27.0118064191119
52 17 1 44.865533185256005 23.282424166961697 24.678572234042214
53 17 0 39.48108428256237 25.03475984488337 24.163703445499095
54 18 0 37.31143502037919 10.050022436148438 26.742985125524935
55 18 1 34.45321219233235 6.514618653972983 25.883550100562864
56 18 0 37.30513263835504 5.394906886249605 23.719739249960483
57 19 0 33.54636091732319 11.815087680715308 13.908490914454422
58 19 1 38.180832088535915 12.317662049739761 15.686362448535023
59 19 0 39.64131480506078 15.470081164765425 13.899982887813259
60 20 0 11.804128526148709 42.822856776212404 30.58469277711459
61 20 1 13.118925243204528 44.69267611364313 31.175311045034835
62 20 0 21.794792146312822 38.60194958592995 34.74465900025772
63 21 0 10.820929288744031 41.27176683893815 31.384950228137363
64 21 1 10.3536199517347 44.10426866237091 34.44246973535178
65 21 0 12.121372750192036 40.14755073117462 31.9017337503403
66 22 0 24.48923216970926 20.51428482785487 16.155019556935205
67 22 1 2.4979956050661154 27.62440365104223 49.43631281533363
68 22 0 24.465669917648437 18.04686158291104 18.56271967972153
69 23 0 43.50700424218436 13.366718922904063 35.39888202803698
70 23 1 46.397769772010115 11.146337614336685 33.96492857963389
71 23 0 42.25250261561038 9.668891553610015 34.38225144841473
72 24 0 35.86333416811076 29.597360474895357 40.128087854223
73 24 1 38.70494379081818 31.378055589747774 41.565068546225575
74 24 0 35.93638288785825 32.16688279007187 37.56946774050224
75 25 0 46.693725940979405 35.427632441951765 11.666226484149565
76 25 1 45.53052680528683 35.93063745601265 12.054491401022055
77 25 0 41.021405680809465 34.6493603386973 10.674499834619487
78 26 0 21.363526010782703 14.972896728701002 27.05392934713705
79 26 1 23.56546104477626 13.750645253929447 28.53664092897231
80 26 0 26.551752274206233 12.53618741049508 28.232389686262202
81 27 0 23.935113312525782 13.940303766777227 10.862149355384915
82 27 1 26.196687991205994 10.47396750247153 9.953307911284526
83 27 0 21.095220451231135 8.393627147951014 15.031511270933523
84 28 0 11.632390073907185 29.33852854885879 31.369325343278938
85 28 1 8.046249491562788 27.497129076842455 29.154367370496534
86 28 0 12.795137651221017 25.76622489913084 26.86049796272636
87 29 0 28.549189012962067 31.554948805771527 19.732002520429372
88 29 1 31.81416820932514 35.51918062131891 16.063728507737565
89 29 0 31.744135123066407 31.543195445480883 16.875356112585955
90 30 0 48.18190439735981 18.086813183828482 41.669812813192415
91 30 1 48.0685854509447 14.578943805184469 45.16552095062525
92 30 0 47.9212477291051 17.796686946293207 43.56803563613448
93 31 0 26.936476805300046 4.127635625972847 15.628013357775387
94 31 1 29.483173937492964 3.81653660030414 17.627278398167526
95 31 0 28.53413011083745 10.109846720451447 19.308567462427085
96 32 0 10.930383662500862 38.38056309432904 11.072108956184497
97 32 1 8.64296937137294 39.18527986979684 9.69696278910957
98 32 0 10.737506293775658 35.53923264571495 8.97690732329902
99 33 0 43.73122220085359 39.43281069198591 23.170079001478257
100 33 1 43.475663580005296 37.595098171397616 19.706421257716695
101 33 0 39.668821332817295 33.12445551000991 24.238625643265344
102 34 0 1.731080276720137 31.216684764865043 13.208653046495265
103 34 1 1.0406250098306262 35.06233624662961 10.084258705535257
104 34 0 1.361857373754464 31.402648673433838 12.88302713353415
105 35 0 35.22510143308308 29.777061428213468 21.04841961827681
106 35 1 38.50692889579593 30.751822572567804 20.089569124296855
107 35 0 34.722430364625204 27.368990746415363 19.22274025172502
108 36 0 34.18200228914158 42.12358283230993 43.593206710696734
109 36 1 37.18374951751412 46.70952931318028 46.26146834867444
110 36 0 33.77182442025277 44.39902208775988 39.64023138093887
111 37 0 14.843585538597907 19.02196670434319 31.605958033329458
112 37 1 14.066535593009753 19.482452197976993 29.01044608506801
113 37 0 13.873751947717368 19.25766503223705 26.005707259353358
114 38 0 8.118289899087154 22.747835242572723 20.205959297664666
115 38 1 6.125757676740591 26.094772315057483 17.364329472109844
116 38 0 8.076485924266688 29.807354826125877 17.901130219163814
117 39 0 21.565686833566517 31.300062872947553 17.126430972297506
118 39 1 24.573226823991767 32.73732941945711 16.133360547590495
119 39 0 22.446749568950732 31.151275201600562 20.13578757246618
120 40 0 20.48843799290366 43.560087367886105 24.517502981204867
121 40 1 22.866437808017192 42.95710846087058 24.236820902796175
122 40 0 24.742568755372577 39.91002279403107 26.969039596852635
123 41 0 33.85410671449754 30.04359657261009 14.433876559232955
124 41 1 30.97823470737979 25.72072210473133 14.554748289963436
125 41 0 30.41202081194196 30.34459974905432 18.451123055087855
126 42 0 23.374474980261642 44.57427706259893 31.8816946930928
127 42 1 23.65234958829708 47.13971488612546 30.12141466442212
128 42 0 26.249230641278896 47.051309798037515 31.579081665674842
129 43 0 3.843357531435332 22.024258220751395 15.029444332468577
130 43 1 5.191394388876915 20.603163979589993 14.959112243744881
131 43 0 9.780417209109197 18.22807694383267 18.976799735020435
132 44 0 10.563895052024463 20.614932469352222 38.61499281065716
133 44 1 9.475436719308457 21.285140629516345 44.045715231287325
134 44 0 8.772394534965223 24.921503639603046 44.38049742850012
135 45 0 28.92688833460437 5.447141992584817 3.0943293466919113
136 45 1 30.03325109184272 3.81483194637774 1.5128192605963044
137 45 0 29.446306825684292 8.006229779304533 1.6822632254276273
138 46 0 4.349618592713164 8.586433255181499 26.181716778290603
139 46 1 4.128950053089998 8.506887805667356 29.561865471731835
140 46 0 15.966816193801186 15.362898597177507 32.85418899357744
141 47 0 36.46150342279907 13.112877460948049 39.26438919683783
142 47 1 44.75566217585097 6.025556781772779 38.60200768242145
143 47 0 41.296315173591985 6.285903380178807 37.82641693535559
144 48 0 5.367187108989165 19.824232514626203 6.9072011573962655
145 48 1 4.041114283985024 17.588377108455656 3.7404143158732324
146 48 0 8.463900393228327 17.991750021186057 5.722112888133301
147 49 0 18.24139922463128 23.53635705342772 35.14951538749083
148 49 1 15.115184151392961 20.461010964943508 39.31447864454774
149 49 0 19.163323283383367 23.742444264796383 40.36480689301053
150 50 0 8.866604986645086 47.14340278887847 12.65093819351914
151 50 1 7.848508744516152 46.04541340422305 13.134874984687931
152 50 0 13.222758463860451 42.98709911102607 16.55448533929398
153 51 0 22.67447535407419 32.693688277748294 13.22799875507719
154 51 1 19.2798410866089 35.57220156280772 12.243216516593645
155 51 0 17.385142604035135 33.638730748604964 12.77439875453134
156 52 0 46.18449341027193 28.27234767378529 39.77955436771144
157 52 1 46.868932746476844 30.992370575750943 42.07923691609639
158 52 0 46.949725630896424 32.473719512528696 40.88105614540868
159 53 0 11.583116999839893 20.197684561437097 10.875895604108415
160 53 1 6.616995395624566 15.991553314526007 9.459331448850728
161 53 0 8.19544236103575 14.353010531190947 12.21806213776271
162 54 0 16.526355724419474 33.01063956575155 32.910078299427454
163 54 1 15.708261200744612 31.80484378690849 30.22027276831831
164 54 0 19.98350654418743 29.503596146241026 29.71510786557858
165 55 0 5.759300312116202 34.24495767480575 21.126125266411346
166 55 1 1.5902948060741624 40.1179172325767 23.021488484955995
167 55 0 6.428243655070289 34.82232982730172 23.36089166326827
168 56 0 7.210415298426104 18.14225789766643 25.61184567682051
169 56 1 5.817808652441917 14.042263426067917 23.173641084665356
170 56 0 5.58836831148899 14.264248290366268 25.320768667194393
171 57 0 26.017664737101327 22.80863817936728 34.559410582710626
172 57 1 46.522270127276975 27.724505195854405 37.65136809300634
173 57 0 27.16659291151984 22.194480739746073 31.72131241937466
174 58 0 15.814644081984465 26.030545719552794 36.28272902635133
175 58 1 23.529144008318053 1.2071160336528581 35.17847125187702
176 58 0 16.198754999862416 23.98871983569307 36.35601129125622
177 59 0 11.12683633181788 4.742015613587847 16.077381125984463
178 59 1 11.963001394370743 8.088802036176155 28.412503306975903
179 59 0 14.877000222790265 11.347424733259773 31.367275596781486
180 60 0 24.56026837311584 44.971218965886784 6.719201578059447
181 60 1 28.079605600829552 45.9218029061698 3.653779863766046
182 60 0 24.718853694919908 18.26561933255979 9.41395084695082
183 61 0 21.456631051116787 28.780341609756412 28.896096986779824
184 61 1 21.4466181416052 26.68356946566294 32.53211980200598
185 61 0 18.693344579575765 24.66414461855166 31.478388699875964
186 62 0 11.846166306745106 47.78960299729944 40.68583282250158
187 62 1 8.858119905499631 48.20566991751796 42.10424052215981
188 62 0 11.15726564453915 46.47900546358852 39.945028782865705
189 63 0 45.09224314851948 10.052545066789715 15.605759889988015
190 63 1 44.67708529822975 6.060783735565497 11.028144723864733
191 63 0 41.525146853720756 10.903390889963243 11.177510203008888
192 64 0 42.0460186123318 12.54779710799694 28.19485455024076
193 64 1 43.124884407031466 9.438287421589122 31.673343179877165
194 64 0 40.177660853309014 8.350299446399438 32.47269921153638
195 65 0 6.513910987118724 37.14877318315444 30.802652982647732
196 65 1 6.777829370125759 41.227495953445484 34.494879394818774
197 65 0 23.00632204144703 26.44257957844886 31.031824220189275
198 66 0 28.14881343162136 25.415567953263224 38.99000406107597
199 66 1 23.07885234445982 20.50106992643877 46.22576027161081
200 66 0 20.659801752631914 19.507823846630224 44.89304122113314
201 67 0 8.152180942841538 11.43653538751171 36.132304975718526
202 67 1 5.159731920482209 5.245406907604065 47.01566397028289
203 67 0 10.278573454540137 10.467442724066965 35.1258330888252
204 68 0 22.567988865173145 26.377772002546042 27.67584427025296
205 68 1 18.863992638336594 29.410045245656892 30.807375826520442
206 68 0 18.71854611267955 32.53160814105207 29.192394254059867
207 69 0 45.71818334667563 41.04473675910606 37.74683803746207
208 69 1 46.86359727935584 42.58662340262705 36.81876687481056
209 69 0 19.272351294044526 43.07111682581315 34.10263015794187
210 70 0 21.098907216471446 33.87554673874873 44.407467582982314
211 70 1 24.120929361690614 36.01436419453197 46.26789902073067
212 70 0 21.944433627107642 32.22470154919788 44.234222394608636
213 71 0 45.86274536976927 24.436323118811984 24.107311454864696
214 71 1 46.749792721844564 21.84873467045449 20.780360616316976
215 71 0 41.843708480754856 23.22757453639336 22.070024324331623
216 72 0 32.184018197543175 10.422628431835406 12.085626941976706
217 72 1 30.417876176123194 11.287529627546819 9.977193236834038
218 72 0 32.174351366787846 10.07224236492541 11.858851805041526
219 73 0 18.317357447817958 38.7039029376842 13.649135281539369
220 73 1 20.047498964404966 40.75527052240025 8.707036342148163
221 73 0 19.284160424960202 37.98252836634408 9.968105473967464
222 74 0 24.39880538553548 30.800804113447473 10.800837291681875
223 74 1 23.0630463757159 32.56905013869719 7.327573118526602
224 74 0 23.90036830066158 29.0771335040394 11.270208682040378
225 75 0 10.698713856095997 22.476458739619986 21.993339867046746
226 75 1 7.37857492496937 20.12490520830733 21.406292868009658
227 75 0 8.348794720759548 17.36766065343288 23.513884040109026
228 76 0 18.727443357605765 30.287065845977803 15.520707532519735
229 76 1 7.607466038336969 11.70986983583395 19.320827276168092
230 76 0 23.589199982253753 26.651438722956424 14.398183767860944
231 77 0 12.572783019139552 6.190052643389804 24.01082158756871
232 77 1 11.667350593649726 3.0685090380326447 24.801415277244278
233 77 0 15.554434364361347 4.881185871492698 23.08477367708709
234 78 0 5.546540161177926 10.981141454417335 5.734520441890522
235 78 1 5.988325280459895 12.723353123571195 4.620091567973285
236 78 0 5.564169890577377 16.92732334781491 4.987258893068313
237 79 0 11.882070385952613 15.296854631990405 22.434909200090694
238 79 1 9.592721713079994 11.769126127624672 22.554449419181392
239 79 0 11.812568049765861 12.31641317895538 24.91071780589035
240 80 0 43.21115028816799 25.163133687452437 36.54190330459214
241 80 1 43.92187922565998 22.422446430601184 41.51091521669595
242 80 0 42.693378428896224 25.890103089674355 41.41362307282532
243 81 0 25.75294274395436 24.03902343846262 26.565262218551442
244 81 1 25.78652690941931 9.624850115037917 35.596674826198885
245 81 0 26.127622787068702 10.292109496362974 34.110586601748565
246 82 0 40.37110211276646 2.1278874413282987 8.992650995608619
247 82 1 44.89108921112018 2.1852887919301827 10.306660263109501
248 82 0 35.86327276795706 19.71425114810408 13.539508938956908
249 83 0 19.124686678850942 29.43091784451103 38.30771323828217
250 83 1 21.719474207721035 18.539165341094144 1.81299214748875
251 83 0 9.702119173800249 16.189058403047913 13.667620736613424
252 84 0 16.58609237080338 34.69946405274387 21.84060282716435
253 84 1 16.35323205610612 39.52579531709896 23.44211370239046
254 84 0 17.12144898265077 36.840351406256765 26.315207325505874
255 85 0 46.7484696017829 40.54492918053897 30.003780334616525
256 85 1 45.67199659262678 38.33657989583373 31.715865337331095
257 85 0 42.00505043054928 35.012954163901114 28.973776383816922
258 86 0 27.825216520201455 34.10887652370472 38.81033222250299
259 86 1 24.8936048690992 36.85107703633674 41.239138422403556
260 86 0 22.13457447260119 34.857301863402114 41.547092919128694
261 87 0 19.503564559065953 4.835786056812256 18.521759361509915
262 87 1 15.99034557444899 5.045212274141278 20.136307070278665
263 87 0 14.289884213553654 8.271020005097553 19.174441992833252
264 88 0 42.56015764957122 18.028691711688666 15.762815816417078
265 88 1 44.11602611842249 19.171401887939727 13.311590748249575
266 88 0 40.084225084027615 19.93163017103434 11.564589613636509
267 89 0 40.88775671330212 31.562134822861253 42.28401098889959
268 89 1 39.47137411644451 34.83664660509796 45.805041897333226
269 89 0 36.324625451119616 36.47493436517437 45.04880709810268
270 90 0 35.26359662895147 11.46835805274902 10.915553845492779
271 90 1 39.95817590349382 7.880987140052138 11.826845172096418
272 90 0 36.40510223681884 9.187470858898395 15.143326001838618
273 91 0 17.99102514393958 9.00037442481942 8.076745131878589
274 91 1 16.565201862453836 7.29119173489026 10.395410488092445
275 91 0 16.799889111114588 21.584694533373835 24.123290731037343
276 92 0 17.40850573704015 26.337943536255526 29.677207767490668
277 92 1 9.498869672790239 33.309409621069484 32.45590885982336
278 92 0 6.5365887710845945 31.351795845804258 38.78187096846057
279 93 0 18.338381675327092 10.215420988631898 12.034401269343373
280 93 1 20.98788259839565 9.68964768996307 8.786755476493262
281 93 0 23.67468958353805 11.414225306969325 13.009114483630663
282 94 0 26.66408358874994 40.28429414301336 33.808458327670905
283 94 1 25.04265927035114 42.837484645592056 36.404935777059954
284 94 0 21.549580422198158 41.91410368217116 37.88616320576359
285 95 0 13.384906335535064 16.204395877979046 41.83080909468133
286 95 1 10.369564797464074 17.312370065731667 44.251111079908526
287 95 0 14.647824814818595 16.99490752666602 41.00089878648799
288 96 0 17.11610799194952 43.36583772298326 21.455134990487746
289 96 1 15.284071295545838 42.17898960760443 23.857211273262816
290 96 0 18.88230428795164 37.989855614903234 24.358849747335235
291 97 0 28.94572878148271 5.212431535888399 10.082057601030122
292 97 1 31.524496446099604 2.64709437668377 5.603088377242445
293 97 0 31.666858134743595 7.906992250580079 9.012405528657375
294 98 0 19.422076422105082 38.78125008013487 36.975773184428085
295 98 1 17.28421945510648 38.79116682054797 36.223420356379435
296 98 0 15.616415356573057 39.48310510902334 34.01559913365027
297 99 0 29.86082179083629 23.934399465798787 38.172010357161206
298 99 1 31.309429435016472 23.850648322384533 39.247775155225234
299 99 0 32.453255362526285 24.901312791371783 35.05426332186252
300 100 0 9.353563834557708 38.44856694993075 38.72588373916926
301 100 1 4.994465551074812 41.141506607895025 42.320286553753654
302 100 0 4.789453474922864 38.24205073819995 38.3281417855551
303 101 0 36.31976789034904 14.413636964920064 4.280848318554313
304 101 1 40.57852209355141 10.310158429985485 3.8355879978760794
305 101 0 42.37705413211854 11.84273025442138 9.54111642855771
306 102 0 28.260498166941858 23.133457456328607 42.407085080887995
307 102 1 26.53762265963533 24.666022774396687 44.04365334151657
308 102 0 26.733401481089004 27.597488390025806 43.03512863237432
309 103 0 35.56546849005295 11.454264085152754 16.286575000166692
310 103 1 28.547647767387623 38.771641504542195 15.387094175648281
311 103 0 35.82918169831344 9.350812580931775 19.469865498653714
312 104 0 34.644980658827244 8.036916399343434 12.622826255304895
313 104 1 37.62318608405229 8.433489119022788 12.057490928366056
314 104 0 33.58343181727709 11.778545248695693 13.086202997825428
315 105 0 32.87262709401532 38.773269423410156 12.114752548374078
316 105 1 35.98230847882386 38.91055946061215 11.349599424073507
317 105 0 37.85379444640063 34.87785662997991 11.715795958424406
318 106 0 22.57279071468892 37.368580308058156 39.60422513839995
319 106 1 24.51130250730507 40.80434695150304 41.53520028700011
320 106 0 22.920420754006365 39.80455857878148 37.07064501094811
321 107 0 25.657056181956214 33.159190027934734 7.554296147837883
322 107 1 26.33268216335772 36.05660367214524 6.219010398856546
323 107 0 29.070262261731237 36.34947000798656 6.496971316136303
324 108 0 23.29415013533711 17.12213008796542 17.53515836279416
325 108 1 23.17063344127297 11.920791699955604 11.668150029866819
326 108 0 19.22147937177404 17.62972354048822 17.0746727758116
327 109 0 44.36930088386228 26.692869922609376 40.01808525778681
328 109 1 44.858799743369154 24.9010401670115 41.96953602739366
329 109 0 42.00286718610057 24.191541956060068 39.339450763130465
330 110 0 19.843516163591058 33.02600182540459 4.636351914608311
331 110 1 22.83452623267253 35.750326776387325 3.624763842980221
332 110 0 23.556781623324266 37.80239371201344 4.872461835036265
