ITEM: TIMESTEP
67
ITEM: NUMBER OF ATOMS
333
ITEM: BOX BOUNDS pp pp pp
0 50.0
0 50.0
0 50.0
ITEM: ATOMS id mol type x y z
0 0 0 27.119864498360005 24.93306744043444 32.329239065279225
1 0 1 26.98356750816906 23.037812938064736 32.985794983354424
2 0 0 26.31235412258779 25.731749632560096 34.998458880579165
3 1 0 25.892451746780036 43.527820906541926 9.054217556051896
4 1 1 26.734889390854033 43.66673208803705 6.5933913921927445
5 1 0 24.282206707499977 38.89890133101591 10.365949679214715
6 2 0 40.2237103530403 26.133505079760244 37.56348053023382
7 2 1 38.33985051126052 24.415510480939258 37.70001594039457
8 2 0 34.48078957492922 25.18076070561751 34.12041692298126
9 3 0 15.08123251983823 30.624711672259984 21.725133423853823
10 3 1 14.318005530649604 34.83068323352244 23.025478249993384
11 3 0 15.886967947878766 31.53095785422464 25.066718125660856
12 4 0 33.51278266100698 19.70632100367947 26.6328090943191
13 4 1 33.956815216217215 17.88526736456164 23.66696751662132
14 4 0 34.12711106489374 15.570879022319597 24.853422773761903
15 5 0 18.258597869180335 8.981337669105939 32.7420764468156
16 5 1 15.981559559260718 4.560547258366998 40.12547993953375
17 5 0 16.799910978098413 13.55863864387559 32.75204401823676
18 6 0 41.86368071797936 40.144448768295184 4.910599393497149
19 6 1 45.46048032660836 39.655960649722566 9.132267396386899
20 6 0 33.63727876159786 36.92837239149125 13.893832442412688
21 7 0 34.090540853165514 7.237002345766137 37.342423087231836
22 7 1 37.52183510403571 7.317335563228011 39.797360730332926
23 7 0 34.069470598430655 12.02021623144333 38.12399077953142
24 8 0 3.8020179109812524 18.54936557124724 16.347560581167013
25 8 1 3.6525330252562025 15.060251615840894 9.175841854211878
26 8 0 5.301878399168795 13.357255878205763 9.565163931705019
27 9 0 13.409546725172742 16.28740087682162 17.37072957041961
28 9 1 9.765485168464272 18.94800884913812 13.180733375882426
29 9 0 10.93188629642773 18.805716061322627 19.03602687999228
30 10 0 14.161100344892564 13.677678174918263 16.725227799093716
31 10 1 34.462995817562586 16.273119876590876 9.976527737072226
32 10 0 35.55925831343709 22.33275067826287 9.07647124101434
33 11 0 30.41421411183884 45.107171131080264 13.172694183440928
34 11 1 34.542792064650484 46.48858956402302 13.286143492593501
35 11 0 34.099874763490234 44.31893320670385 15.36518039145346
36 12 0 38.075906863014715 39.287733893692256 12.167117359068492
37 12 1 41.88269560143124 38.02150809064224 10.921628527939937
38 12 0 41.98800064771028 35.66745330884401 14.946300960775941
39 13 0 34.83797714766662 28.352410894602098 44.867365144863236
40 13 1 35.71100431681924 25.81559004411296 46.307028267480156
41 13 0 35.25354945092263 24.937455644722984 44.03442425470189
42 14 0 11.781568552963522 27.518349772707094 23.77715619117087
43 14 1 13.463425630074992 29.349362925007586 22.349170843220094
44 14 0 12.597673859163539 27.297490788649327 23.1569922522733
45 15 0 30.744192899356257 30.192335477042146 33.13257525867954
46 15 1 31.684322518170745 22.692205903507972 43.222485083433405
47 15 0 29.61020550554813 22.089005427863736 44.071491388917885
48 16 0 43.67701671375726 35.89971285754774 41.066880314401466
49 16 1 43.75440019730237 36.07323999364633 45.5930645912717
50 16 0 39.62178393038899 36.922612416227594 41.657663389207876
51 17 0 43.091402159067236 21.118181840810657 26.87978643651171
52 17 1 44.837802724761275 23.281423579745574 24.684677446491097
53 17 0 39.821035505897704 24.924100289658565 24.19623426016308
54 18 0 37.13932365362049 9.83720925117909 26.691282228298327
55 18 1 34.474047656015685 6.52397496003202 25.879142935412226
56 18 0 37.14387662470683 5.4580184760952415 23.841957378465693
57 19 0 33.830916613229256 11.846191588076904 14.017262471378421
58 19 1 38.16830589499894 12.327015889493318 15.67316366264032
59 19 0 39.55720458605912 15.289332268421044 14.002234035415745
60 20 0 11.863572877826476 42.90714566296879 30.611388588199294
61 20 1 13.15289073509072 44.66097169532261 31.18913969352863
62 20 0 21.19195654121817 39.024950225443895 34.49664055625101
63 21 0 10.792497840775921 41.43797109266803 31.56279455273914
64 21 1 10.362133375088124 44.078721173956914 34.421565321715825
65 21 0 12.013582998467143 40.39013351248865 32.05842094190645
66 22 0 22.861077059704506 21.04031329290423 18.61941574633853
67 22 1 2.7013131969717548 27.54722557570955 49.13958028973357
68 22 0 22.84074318878586 18.755682806377276 20.846044497128403
69 23 0 43.67307129577103 13.240136314142353 35.316847311401645
70 23 1 46.3719905656115 11.148796336873597 33.97162137065445
71 23 0 42.49895989240438 9.75617230553238 34.35725802350013
72 24 0 36.02211473951399 29.696004280286022 40.209262742899625
73 24 1 38.68442497706436 31.374871627530677 41.54474176346179
74 24 0 36.10589065389533 32.11917238353132 37.813499242554364
75 25 0 46.66724537419728 35.43583838360701 11.67216913328718
76 25 1 45.51496965651642 35.925243108835524 12.048868289084428
77 25 0 41.29686939337447 34.72737366929764 10.758577973916829
78 26 0 21.47687309510534 14.910324309375603 27.128454653545273
79 26 1 23.5683689573184 13.750477984570928 28.531040701435998
80 26 0 26.391878385954072 12.601436543380366 28.24746608889481
81 27 0 24.067767271176557 13.736768976998452 10.80890356298562
82 27 1 26.16728555799878 10.478058591020542 9.977655041356865
83 27 0 21.433020922784138 8.531643396783545 14.695171009039536
84 28 0 11.41695100411506 29.22795197383309 31.236320648999925
85 28 1 8.078353759702441 27.49724388050621 29.153674194833012
86 28 0 12.496902867469423 25.87495637517525 27.0045919889793
87 29 0 28.759196673135033 31.810330729676224 19.49598029011993
88 29 1 31.80074837507895 35.4888508333545 16.081453021608677
89 29 0 31.74888213403722 31.77303648159687 16.827813224029246
90 30 0 48.17519441076388 17.8714337417605 41.88286072985104
91 30 1 48.068520258780254 14.603508823582619 45.146540470866114
92 30 0 47.92900202859022 17.6190248125031 43.65867662465027
93 31 0 27.07281259920229 4.110945510966151 15.735028807344465
94 31 1 29.470810735994675 3.843107859484086 17.627416275347695
95 31 0 28.595604865680066 9.70139479012561 19.199347086340353
96 32 0 10.816662008431466 38.42226169177107 11.004892390756904
97 32 1 8.657812850002673 39.16927747770025 9.698551886847914
98 32 0 10.61373327381456 35.75357025080727 9.018696289874832
99 33 0 43.7165161072212 39.32734826590526 22.971470250090604
100 33 1 43.460843610578834 37.58320044263951 19.73755895924385
101 33 0 39.92064865585938 33.42028443152166 23.939036785961484
102 34 0 1.690042565474437 31.452826056748552 13.01750696157086
103 34 1 1.0444894359646928 35.03387399235862 10.106735402919417
104 34 0 1.3410623360495482 31.6219027811116 12.714545759659778
105 35 0 35.406529063803625 29.832219104975497 20.99652150572017
106 35 1 38.48095820177391 30.735340459495877 20.089499865210396
107 35 0 34.95653362928794 27.57754458475571 19.275747295552378
108 36 0 34.373722957870704 42.41641755729921 43.76371219886295
109 36 1 37.15757662602577 46.68161907237693 46.22327203784392
110 36 0 33.99886998213206 44.55275190891194 40.08086708806604
111 37 0 14.806564846280502 19.043090294606095 31.47662517401727
112 37 1 14.068140039441047 19.48049253767763 29.008780489005634
113 37 0 13.885101796979502 19.2678952562437 26.16169006933944
114 38 0 7.997235268409782 22.951939796162574 20.0330689804503
115 38 1 6.140471752487727 26.095669430492357 17.37708656829458
116 38 0 7.962118152042557 29.588926231338043 17.869904752972555
117 39 0 21.730156557683394 31.378955622385647 17.07041686494399
118 39 1 24.554836920076536 32.72636637079069 16.15202596133985
119 39 0 22.576519451939834 31.247783923988138 19.893166159847198
120 40 0 20.599049069103998 43.5314513533996 24.505124326269616
121 40 1 22.866557003999397 42.94751076859381 24.247796780016586
122 40 0 24.630058920778684 40.09222267302269 26.805800909087935
123 41 0 33.67630214276187 29.77621492541335 14.441268917885756
124 41 1 30.98708609729315 25.75590260066762 14.569849342695553
125 41 0 30.44820325583891 30.049090965791176 18.20211333209872
126 42 0 23.388279336903828 44.70906468399857 31.788783499684847
127 42 1 23.65982094507802 47.13095529123054 30.13193841427497
128 42 0 26.115885492818947 47.05668197703927 31.50361334604496
129 43 0 3.8968248958200316 21.96934771481328 15.029170305561523
130 43 1 5.206659455462275 20.596955442447612 14.975402845162252
131 43 0 9.482679667708977 18.382337045511424 18.716415423715468
132 44 0 10.495350137127001 20.65741763177942 38.95670465893162
133 44 1 9.477236280160888 21.295308813327654 44.02556475051555
134 44 0 8.812120381671566 24.716421602929774 44.36119104950611
135 45 0 28.97798986179132 5.368047283972151 3.022024162408172
136 45 1 30.027868130600986 3.8351495170155587 1.5180160619280005
137 45 0 29.481309290902644 7.760261012714329 1.6713555918691252
138 46 0 4.338684535808703 8.582730210537623 26.366211042261
139 46 1 4.182023404905725 8.53746179115774 29.564928655434546
140 46 0 15.12857094831764 14.87741682469539 32.620687649676384
141 47 0 37.036166927094776 12.621770283288157 39.218472388898704
142 47 1 44.707834023385615 6.057212092256263 38.60223254972311
143 47 0 41.48690725329181 6.270518693898328 37.86874099506953
144 48 0 5.289406684474409 19.694704332152313 6.7234166599231715
145 48 1 4.062804635394262 17.59803046807237 3.759470111755123
146 48 0 8.194698691165081 17.966824852551323 5.601036475730532
147 49 0 18.041772085012223 23.33997763136668 35.415473416115226
148 49 1 15.143391254667383 20.486036143097564 39.30193237352559
149 49 0 18.911643051700366 23.53842301721283 40.29958491454909
150 50 0 8.834675561513876 47.11207075620292 12.664021753078936
151 50 1 7.87256245324683 46.034823030907425 13.148090318867935
152 50 0 12.86982794177611 43.18788075714847 16.329957657477237
153 51 0 22.470894228112094 32.866378682299576 13.16891650416264
154 51 1 19.286716408896602 35.55540603101872 12.24855943318366
155 51 0 17.478705306210664 33.73475301576813 12.748001923771376
156 52 0 46.2227351940037 28.424261567225713 39.908113885028804
157 52 1 46.86672798592213 30.986351463825688 42.06835053444004
158 52 0 46.94677482325038 32.41813392531196 40.92669352800929
159 53 0 11.260252395587644 19.92411800661702 10.783874493862507
160 53 1 6.642616478041456 16.00295912588773 9.474651828112556
161 53 0 8.107711010346646 14.443882309558566 12.064884441158359
162 54 0 16.483563643199027 32.94784867358506 32.76985633063361
163 54 1 15.727218277076046 31.79999055070226 30.227126524797338
164 54 0 19.70775440195507 29.64117548153752 29.762650392660493
165 55 0 5.483770405136498 34.63292748949878 21.251098415549446
166 55 1 1.6273726349169317 40.071923371205976 23.01505380416722
167 55 0 6.110527369232047 35.170262038293195 23.338873276809537
168 56 0 7.1252524183920265 17.891244714539752 25.46193456204804
169 56 1 5.822606277129203 14.058734780860396 23.188664645065245
170 56 0 5.596683995904047 14.251769440512284 25.23035470296007
171 57 0 27.502923164569367 23.164595263597533 34.78114423255862
172 57 1 46.34192036704909 27.67726206267771 37.61057190926546
173 57 0 28.562120227214503 22.599933507686856 32.159120095703614
174 58 0 16.3781701513262 24.21728128760769 36.20206095799167
175 58 1 23.46058113297454 1.4240705571829426 35.18886861641487
176 58 0 16.73223528079794 22.330711102424875 36.270319933372065
177 59 0 11.186036719465118 4.977759288177477 16.944949804472643
178 59 1 11.970627757175865 8.086759189842564 28.369885336292477
179 59 0 14.695782646068974 11.144373479911879 31.181607856060154
180 60 0 24.77291041876643 45.0258840704029 6.5342666019239735
181 60 1 28.05091940072364 45.79146460019958 3.6917469269153216
182 60 0 24.965208550633605 20.296435830711637 8.99133715363858
183 61 0 21.456055405220187 28.657463585866616 29.109170639761437
184 61 1 21.437199091607862 26.68431751357024 32.51494753847281
185 61 0 18.84633590054717 24.7763212592182 31.537000348748226
186 62 0 11.68570026692283 47.8139617552664 40.763534791101286
187 62 1 8.876227595061641 48.19823187282436 42.09191219060345
188 62 0 11.02800961050905 46.573659333313785 40.064582468658465
189 63 0 45.06562908508245 9.797398745978978 15.313051166885334
190 63 1 44.666281542256264 6.095888584318425 11.047026067762205
191 63 0 41.72466051212659 10.59695009504279 11.168128880233478
192 64 0 42.11140163566794 12.358808416111206 28.406245101847784
193 64 1 43.11094275114872 9.44645194522747 31.662808353802763
194 64 0 40.33528944607164 8.408623518711998 32.42980187376791
195 65 0 6.532051424004477 37.402636933079386 31.033449997695936
196 65 1 6.850445623322276 41.14446555703139 34.46474766268814
197 65 0 21.824622812008236 27.515830924747945 31.286240463870868
198 66 0 27.79986369185954 25.077457335089562 39.487544488510935
199 66 1 23.092896510186655 20.518998321447175 46.19043985555459
200 66 0 20.784027967202388 19.55906918475955 44.96063489015284
201 67 0 7.942339669471042 11.002075767583174 36.89588051977623
202 67 1 5.195449719137342 5.295606174352041 46.91545592664867
203 67 0 9.916929684070405 10.098713915105352 35.965586560634065
204 68 0 22.333761869301565 26.569799926066025 27.87371542047303
205 68 1 18.87905842830119 29.409022790016063 30.7883839665003
206 68 0 18.72689402497655 32.35887627071099 29.281380274396728
207 69 0 45.7661082308452 41.1070695200611 37.709460276444986
208 69 1 46.734087453977516 42.584956935124026 36.80864403733963
209 69 0 21.296584815992922 43.03545350956659 34.30197849672174
210 70 0 21.273976816495484 34.001333514362685 44.51582589850849
211 70 1 24.10166679872535 35.99215242491897 46.25339735292985
212 70 0 22.077558912140407 32.45429189888268 44.357932619118344
213 71 0 45.912674539957784 24.280831264218165 23.913089729254526
214 71 1 46.72747098543038 21.863615800419744 20.79762613818664
215 71 0 42.148037231637986 23.14187969620988 21.989805720104837
216 72 0 32.09441310528238 10.4700332011068 11.980792254997047
217 72 1 30.42899876440833 11.280974217991616 9.989792321947151
218 72 0 32.08606533831034 10.129737027073617 11.762098520008959
219 73 0 18.426303754197896 38.833562627614064 13.338166524501347
220 73 1 20.038158462476176 40.73811591242321 8.730722163415772
221 73 0 19.324653205925085 38.1273675045086 9.900095308317521
222 74 0 24.322063035797527 30.904937190578043 10.59940615528333
223 74 1 23.071131666495827 32.549000709844336 7.355522693401281
224 74 0 23.847702355582367 29.29371712889257 11.024484247367914
225 75 0 10.505362920782655 22.339410036693508 21.959211247231742
226 75 1 7.394035367651329 20.123860366069977 21.415769718772996
227 75 0 8.294776940755389 17.52142809601158 23.396399098166263
228 76 0 17.92173047556216 28.939341845301755 15.796127394872547
229 76 1 7.7303676045006195 11.861852251294769 19.281263890298423
230 76 0 22.42845629262643 25.567418091897277 14.75565815218439
231 77 0 12.52244269750428 6.02188577210731 24.053997009945864
232 77 1 11.68508536158535 3.0858742959008656 24.792266291531284
233 77 0 15.321010674453483 4.7714919624671595 23.187993419084403
234 78 0 5.564019664650868 11.05506228840385 5.689830435386284
235 78 1 5.985691977002156 12.734188783335528 4.624196253097188
236 78 0 5.588764232746365 16.680023249213175 4.966180373403662
237 79 0 11.747612099246043 15.09033186763507 22.441354491955185
238 79 1 9.60859711240695 11.783931914252241 22.561922986241765
239 79 0 11.693128940386085 12.286008370314397 24.784762365348957
240 80 0 43.25612723206727 24.98980234773836 36.85579351266429
241 80 1 43.91493974371302 22.44587706435605 41.49099422001579
242 80 0 42.7621769576499 25.69579177324667 41.419832485329806
243 81 0 25.75533769593375 23.005506350639763 27.212868108758272
244 81 1 25.786881747169293 9.691208535875335 35.55350940513936
245 81 0 26.11955148366713 10.26389222112055 34.15362909874022
246 82 0 40.64317703944967 2.1329778119645426 9.0722889775561
247 82 1 44.83329832374599 2.2642242165583375 10.316309250575532
248 82 0 36.51586064216423 18.446091758067585 13.305468414346949
249 83 0 19.315078032326483 28.62360383583565 35.60570690176848
250 83 1 21.653747293535268 18.57898736505944 2.034642646752017
251 83 0 10.563361442426169 16.359200489931602 12.823220237955104
252 84 0 16.571725138931715 34.99688582347517 21.9390767301173
253 84 1 16.356839337127713 39.497656666601664 23.446324106938974
254 84 0 17.077138020189526 36.9956431954602 26.149733736260956
255 85 0 46.6924550560171 40.430524204596715 30.091833581059166
256 85 1 45.66102993653082 38.33060857855687 31.699560154533653
257 85 0 42.23653041857644 35.222895828043875 29.14659980549972
258 86 0 27.647846194820083 34.27449810531811 38.95715663347151
259 86 1 24.89525832644166 36.83391741003999 41.23101982592319
260 86 0 22.285520781561484 34.96613385176806 41.53013736239617
261 87 0 19.30262234373512 4.848080727831146 18.61392858637491
262 87 1 15.996862786734594 5.055865318976557 20.127150309421314
263 87 0 14.386560674212829 8.08827788085439 19.22876144506833
264 88 0 42.642329177026355 18.088686708617775 15.634131872977854
265 88 1 44.0958647352855 19.1704819049994 13.313130410542643
266 88 0 40.32463714032771 19.88635598327887 11.668636683170476
267 89 0 40.80038393882604 31.763488984289744 42.500233914772316
268 89 1 39.46583149450205 34.8298077729915 45.78891541212916
269 89 0 36.50061892876621 36.38299905620373 45.09063364535325
270 90 0 35.562667529541315 11.239824624534053 10.973535617748825
271 90 1 39.92388581435313 7.900751681581101 11.836127803158673
272 90 0 36.6232480378802 9.107157322756702 14.939914625687233
273 91 0 17.9149993774127 8.910529889696328 8.201647806601896
274 91 1 16.571001888466153 7.3613987691821805 10.449668417254676
275 91 0 16.78307283606258 20.55120424728204 23.130264917231575
276 92 0 16.859912605712257 26.820847318033334 29.870634772307653
277 92 1 9.520880768634523 33.27121801675776 32.46991588237219
278 92 0 6.732993405100281 31.47995744857205 38.36433588977005
279 93 0 18.493623720190268 10.184521403219831 11.843798233014839
280 93 1 20.98859477474463 9.698296236999782 8.815021308707038
281 93 0 23.493135257159988 11.329350117294227 12.705508987159856
282 94 0 26.57006774499757 40.43140305105174 33.958413168418446
283 94 1 25.03601388715618 42.82500842614582 36.40088960736491
284 94 0 21.749930701871495 41.966629678384436 37.80092500704469
285 95 0 13.210483995361264 16.266456571389 41.97051430161064
286 95 1 10.397128237090707 17.30718348717857 44.229713063037046
287 95 0 14.38125015080164 17.015733052896206 41.20357137323275
288 96 0 17.018032061220882 43.30243836672882 21.58361566697931
289 96 1 15.304388328944604 42.16634728336621 23.851131355209308
290 96 0 18.65629852226276 38.253074003036595 24.327269888308866
291 97 0 29.108601058857122 5.0500342475324915 9.798918425767141
292 97 1 31.51488099019944 2.6783608479863283 5.634485987085024
293 97 0 31.657857587204617 7.56910123755312 8.79324298005105
294 98 0 19.328972383249994 38.782648854831464 36.9407173550096
295 98 1 17.284702960216507 38.79323027976303 36.21869675013936
296 98 0 15.701780330909427 39.448688944396565 34.12623492225703
297 99 0 29.909880132615662 23.930513271257187 38.21318263507603
298 99 1 31.310592747424188 23.854808363412705 39.229550951376936
299 99 0 32.385583345029374 24.8386598914418 35.30458817060985
300 100 0 9.073552524444697 38.621665895217795 38.9569330679271
301 100 1 5.01120572266656 41.11961702946451 42.29060394240377
302 100 0 4.801619257299477 38.41918203141107 38.57201877259805
303 101 0 36.59114118769119 14.152438684522666 4.252981946154526
304 101 1 40.56879816381643 10.33260792235581 3.8602107636207657
305 101 0 42.26126540652849 11.74473901784889 9.175012017173458
306 102 0 28.17401945917029 23.210495402233295 42.48919407097265
307 102 1 26.54366399846087 24.67083327554027 44.03521632685694
308 102 0 26.72319266284952 27.443506638980438 43.08801475427494
309 103 0 35.051438285095905 13.454951937903997 16.22114864511303
310 103 1 28.613201558047653 38.51151650979754 15.409955225150856
311 103 0 35.2942902826959 11.512173573476346 19.169512661426317
312 104 0 34.79996890508293 8.055605907870046 12.59327961473568
313 104 1 37.59970821602652 8.444855105585344 12.063151690378076
314 104 0 33.83546787123502 11.57060052244409 13.02225918698981
315 105 0 33.03834487801194 38.78017086700586 12.074059640869864
316 105 1 35.978947641801746 38.89509961811626 11.353503723237989
317 105 0 37.74188428651318 35.11832611324203 11.694034002431888
318 106 0 22.687680286879257 37.5718178583708 39.719336051129936
319 106 1 24.498059891188802 40.78781453152423 41.511042807661404
320 106 0 23.017385995240904 39.865936525767644 37.342070236304636
321 107 0 25.69337517139596 33.31456798115791 7.482704089605333
322 107 1 26.338913352872485 36.04780620073987 6.2243481233208335
323 107 0 28.934365466192165 36.33488577565876 6.483195833645968
324 108 0 23.285859845563547 16.776029244405994 17.144813261738957
325 108 1 23.155390741776543 11.965129384527852 11.718001511722544
326 108 0 19.488508274967238 17.243887896115673 16.709376485849518
327 109 0 44.394637855452906 26.60658688309668 40.11402889626899
328 109 1 44.846799816107314 24.903477470884315 41.953987373371355
329 109 0 42.16677693685308 24.231540824925762 39.49095966075087
330 110 0 20.01846287714624 33.185724947388884 4.577580055372007
331 110 1 22.825764717894625 35.74638944834839 3.6320414853196374
332 110 0 23.521948335892056 37.705692461351994 4.81470069838819
