ITEM: TIMESTEP
74
ITEM: NUMBER OF ATOMS
333
ITEM: BOX BOUNDS pp pp pp
0 50.0
0 50.0
0 50.0
ITEM: ATOMS id mol type x y z
0 0 0 27.10661592953198 24.690171672436 32.39902118173567
1 0 1 26.977140952085612 23.082566245699116 33.00318717130084
2 0 0 26.428636611122638 25.25854088325707 34.65045190625616
3 1 0 26.020812565306823 43.556131507507516 8.68482056996257
4 1 1 26.69510779806858 43.603248508781306 6.665328542465695
5 1 0 24.7901846275638 39.88628104144907 9.5845479309296
6 2 0 39.93284550122259 25.873336740595473 37.57997882071712
7 2 1 38.30985261201534 24.441179989897886 37.654424873812204
8 2 0 35.25160253546243 25.030210272105794 34.8333352803922
9 3 0 14.93617326101798 31.42337475870637 21.97163023320806
10 3 1 14.345316159777768 34.74234030369807 23.03378680910246
11 3 0 15.594939873533006 32.14572248490392 24.68729911945807
12 4 0 33.59123647976658 19.3840610218366 26.109519945104292
13 4 1 33.95355021750403 17.88317412767278 23.71104183446902
14 4 0 34.100896285999774 15.926632575090432 24.671525547155245
15 5 0 17.767382281218676 8.036944661448919 34.328951227061395
16 5 1 16.02346370257455 4.744483053576107 39.92425748901563
17 5 0 16.62065729637906 11.560058404587211 34.38473211868685
18 6 0 42.569907859294084 40.042622128737584 5.764955867659992
19 6 1 45.25030369240687 39.6239142888815 9.146243036434518
20 6 0 36.294113424374466 37.54327358150616 12.815544731877212
21 7 0 34.72958242563143 7.25373495225068 37.79992397007422
22 7 1 37.43796387996604 7.376322319019912 39.74750636064731
23 7 0 34.77234642506318 11.05969180602857 38.464168346625016
24 8 0 3.7716130769990004 17.801658148086208 14.814481982043306
25 8 1 3.669633535487787 15.091269948682243 9.274903371637532
26 8 0 5.060488021086089 13.609171362876593 9.513549411877719
27 9 0 12.665495795875685 16.831122815327607 16.51821753747804
28 9 1 9.826658852548597 18.912327811198804 13.308192262269147
29 9 0 10.697295733587527 18.83290697612968 17.849259947404914
30 10 0 18.878398853241944 14.290192290014007 15.156261854770468
31 10 1 34.18428137925552 16.31309047098822 10.062335606028881
32 10 0 35.301401783998315 21.080756182990026 9.272494079946188
33 11 0 31.195050026377285 45.36830766892855 13.194286377971075
34 11 1 34.48932721012099 46.44982995979405 13.306266007896708
35 11 0 34.17447729538061 44.67796667710603 15.021632404040947
36 12 0 38.789496953111275 39.04853680231134 11.936945363295862
37 12 1 41.83954388735659 38.00800594825625 10.984488995236172
38 12 0 41.964463381443665 36.12274755116002 14.170773683303869
39 13 0 34.98334322037233 27.932044488802415 45.10848173558166
40 13 1 35.69761205275189 25.833933423059246 46.27078932399489
41 13 0 35.32249830367546 25.064352500442745 44.37318474312678
42 14 0 12.04466260636756 27.823032648672193 23.55257769110677
43 14 1 13.438374107206922 29.31258677863632 22.371061199046583
44 14 0 12.735390491307681 27.581132428412744 23.031294194718818
45 15 0 30.9530590286892 28.507328880307938 35.39945334835203
46 15 1 31.652684187854277 22.791544893367895 43.089183933367536
47 15 0 29.907641479127008 22.18442284031265 43.937719623895354
48 16 0 43.690562327875476 35.932987577563765 41.92726596128439
49 16 1 43.70138817044517 36.08189702769017 45.48973923139658
50 16 0 40.45667503019284 36.75092970852037 42.45048356345876
51 17 0 43.3976364882379 21.501497296754113 26.4914260427255
52 17 1 44.75662312862809 23.278183724742846 24.702574893846098
53 17 0 40.81775856195895 24.595793209940968 24.2949613950026
54 18 0 36.636992267115936 9.21026727438066 26.536598547029012
55 18 1 34.534841740749236 6.551298684939586 25.866299088041625
56 18 0 36.673502843461165 5.647778348071575 24.202144547733837
57 19 0 34.67009759267442 11.942284355046596 14.335250929915125
58 19 1 38.13174607402004 12.354317335228354 15.634643740322247
59 19 0 39.30299920126391 14.756540908556234 14.300699623989297
60 20 0 12.04983077380312 43.148654273221695 30.694629795409835
61 20 1 13.252154266931704 44.56829750254045 31.229549634306018
62 20 0 19.417703009277012 40.26630492403305 33.766601603655005
63 21 0 10.709981422357586 41.92039860619535 32.07902808570118
64 21 1 10.38694994018361 44.0043542883849 34.36076928724472
65 21 0 11.698999743003764 41.09767938276843 32.515143852554885
66 22 0 18.12563415726242 22.5645580537887 25.79249929688435
67 22 1 3.292635959650874 27.322764134949747 48.276571423279464
68 22 0 18.115020287455412 20.82282302939947 27.48110409734227
69 23 0 44.15570503015636 12.867684848589649 35.07682794642697
70 23 1 46.29683112913476 11.155935125117054 33.991125916960875
71 23 0 43.219091754028106 10.014543027130578 34.28541676252041
72 24 0 36.48381701498806 29.98486128218068 40.443224685056784
73 24 1 38.624654614902866 31.36566760127977 41.485457301829136
74 24 0 36.60042977800248 31.977527667513762 38.52798027283241
75 25 0 46.581824798202234 35.45891773413391 11.688312069757778
76 25 1 45.469641202282155 35.90947337359162 12.032442587623555
77 25 0 42.10780452164213 34.95627029362022 11.00542691961513
78 26 0 21.815485151365245 14.724226006596535 27.34675509324201
79 26 1 23.576813415034973 13.749987753171611 28.514801281649532
80 26 0 25.918153896612214 12.795380130054092 28.288989173361855
81 27 0 24.44967270840774 13.136314158454542 10.660046703112469
82 27 1 26.081565800901714 10.489894716496218 10.048659106109277
83 27 0 22.422668949138558 8.942735030612011 13.70794923181559
84 28 0 10.790945977133681 28.90087630117306 30.84261033038332
85 28 1 8.171926107762806 27.49755472554694 29.15162436216514
86 28 0 11.625731334899925 26.19702929856521 27.431093162699636
87 29 0 29.375636182364726 32.55518004237797 18.804081797960805
88 29 1 31.7615855033396 35.400589408809154 16.13313699623622
89 29 0 31.759283253429455 32.44015587879045 16.692842394189892
90 30 0 48.15563972033897 17.24229289480701 42.50489738684512
91 30 1 48.06835347875366 14.674941312584014 45.09120156992739
92 30 0 47.95122925592028 17.10524167403306 43.92206674342055
93 31 0 27.472376494317643 4.070029153747387 16.05180406837124
94 31 1 29.434759421159626 3.9206965277671837 17.627860225695546
95 31 0 28.77286383428777 8.500881669901622 18.875474839497404
96 32 0 10.485939224942237 38.542445007790484 10.808677395901546
97 32 1 8.701091765679019 39.122491433721386 9.703097997630488
98 32 0 10.251996723473884 36.38195635724569 9.142166283839659
99 33 0 43.667918232914765 39.01135832659605 22.394842501977593
100 33 1 43.41758782396708 37.54842395392747 19.82831980141543
101 33 0 40.66134526886206 34.2927077819009 23.06350920491875
102 34 0 1.5720270068892748 32.140915834304046 12.461341012839144
103 34 1 1.055751115049238 34.95109267296699 10.172119491708639
104 34 0 1.2788843383842619 32.258311737962 12.224565276501473
105 35 0 35.932472889040874 29.991037574782258 20.845130841265753
106 35 1 38.405355036374196 30.687254660717436 20.089206881799054
107 35 0 35.640239678896144 28.18809052926282 19.43182905131635
108 36 0 34.9303836076159 43.27109729192951 44.25329140708007
109 36 1 37.08141943764723 46.600446171789685 46.11208053328303
110 36 0 34.66072415142391 44.99684106881722 41.37035276648213
111 37 0 14.698541699786567 19.10350447962558 31.090729839693477
112 37 1 14.072658722274092 19.474956679990292 29.00397282145938
113 37 0 13.920827181753692 19.296052431196514 26.62450995543883
114 38 0 7.643923703683039 23.557986936963946 19.525153609919496
115 38 1 6.183410929710588 26.098291834198648 17.414313640849358
116 38 0 7.628405094750277 28.941005128380674 17.782187710133204
117 39 0 22.208273066024695 31.607996686358412 16.909328395333084
118 39 1 24.501320583957057 32.69443599124731 16.206497398968622
119 39 0 22.954659048099924 31.529597241929398 19.182743162761508
120 40 0 20.928055710309238 43.44289907886231 24.472182339637158
121 40 1 22.866868836662892 42.91950178431713 24.279842514294106
122 40 0 24.296092734540238 40.62892156058299 26.32599914310903
123 41 0 33.15382687374114 28.998358371182523 14.468535980857629
124 41 1 31.01283730701789 25.85835777468562 14.613857010869532
125 41 0 30.558659553976888 29.187656229958712 17.470721583073104
126 42 0 23.430537244656882 45.10480238078974 31.516922036207774
127 42 1 23.6816586156477 47.10534099977356 30.16270635642199
128 42 0 25.72422807717143 47.07079556562501 31.283189589278987
129 43 0 4.062779715271475 21.80244721833973 15.034428468985379
130 43 1 5.251105494986654 20.578928117304155 15.022921522009527
131 43 0 8.605486903488497 18.83773440037949 17.950849223926397
132 44 0 10.29271793604811 20.787653643736135 39.96227724689611
133 44 1 9.482487290014806 21.324989071722364 43.96675400369983
134 44 0 8.930643537018735 24.11162684021674 44.29658301012453
135 45 0 29.125593692827046 5.138407460578676 2.8134086366286666
136 45 1 30.01223908998874 3.8945356042907497 1.5330220802130858
137 45 0 29.583690908042875 7.039782350315733 1.6396543768400595
138 46 0 4.324898754170236 8.582506934569883 26.915869767870422
139 46 1 4.336913646841868 8.626688982710172 29.57382886654447
140 46 0 12.664094672064259 13.449999016453244 31.928638505867088
141 47 0 38.720220883921264 11.178709177267892 39.08240119501059
142 47 1 44.56868362423645 6.14968092681499 38.60303200954673
143 47 0 42.02927721959947 6.23405765541896 37.99204035330312
144 48 0 5.066083915410595 19.31587419421738 6.1873051061078685
145 48 1 4.126023016965345 17.62613657937348 3.8149567851539716
146 48 0 7.4064920420934195 17.896094607432566 5.249265734636259
147 49 0 17.461556791865473 22.7681715606992 36.197957900264896
148 49 1 15.225528902893158 20.558912255258114 39.265363909942195
149 49 0 18.177673487592006 22.944222339330626 40.10218879875964
150 50 0 8.743677005284784 47.01792116687372 12.704584664457128
151 50 1 7.94305602576329 46.00376403244552 13.186835169522132
152 50 0 11.832927262880645 43.778987078805116 15.669481569963317
153 51 0 21.870189922904956 33.372032636575206 12.99578158385067
154 51 1 19.30683564091624 35.50633076586851 12.264172118034999
155 51 0 17.75745695742433 34.01425662385609 12.671365644382924
156 52 0 46.33526974559887 28.872218008615008 40.285328580983816
157 52 1 46.86027391088452 30.968739379966323 42.03646740273324
158 52 0 46.9375634158388 32.252067252789956 41.05971598855851
159 53 0 10.313312004343846 19.117602672466738 10.517201177282583
160 53 1 6.71737193607011 16.0363108275611 9.519295551517613
161 53 0 7.856675679873566 14.716198457898653 11.617049899698879
162 54 0 16.377780040916015 32.74719564437999 32.35340869282339
163 54 1 16.03177238775553 31.580770155503334 30.226736522643588
164 54 0 36.91180783014366 15.068833253259388 28.738390957272095
165 55 0 4.68307300396958 35.76253173518966 21.617871349139964
166 55 1 1.7352275284753282 39.93812840017938 22.996328757198338
167 55 0 5.185543290934829 36.18137813172438 23.271700668572212
168 56 0 6.875014490020487 17.154172296114506 25.022819739161505
169 56 1 5.836722791157302 14.107054370955815 23.23243712002584
170 56 0 5.620757131110695 14.215886279027972 24.969287179013946
171 57 0 31.82436268121184 24.19840619930514 35.42549672303277
172 57 1 45.81735187289686 27.539891352706665 37.49194849583858
173 57 0 32.633650809434045 23.764122917603245 33.41243354246884
174 58 0 18.018170792552432 18.938696804916265 35.967537290616875
175 58 1 23.26117618759522 2.0550545153637367 35.219107049594
176 58 0 18.282720244701796 17.513541038417728 36.021014784777364
177 59 0 11.365541727028443 5.677130851887883 19.50200215289442
178 59 1 11.992940822713535 8.080900422026815 28.245756917479486
179 59 0 14.159284196841739 10.538769198926605 30.610659248526467
180 60 0 25.38796148129036 45.13643408948958 6.004514401812209
181 60 1 27.967624451610458 45.41146566794879 3.8021532454612936
182 60 0 25.683060626078802 26.265949060776002 7.754384371992328
183 61 0 21.45100546277591 28.2936782676816 29.73441206000712
184 61 1 21.409423533485853 26.686431226322043 32.465189623291245
185 61 0 19.296315447443572 25.108797465466207 31.704942634364876
186 62 0 11.219352708150424 47.8858849936333 40.990211915252004
187 62 1 8.928968091141797 48.17653598685247 42.0559804937549
188 62 0 10.65051244913917 46.848883838132785 40.412820429754795
189 63 0 44.98265658460517 9.055565649063874 14.453734713061722
190 63 1 44.63482847994851 6.198121571052498 11.10202227904162
191 63 0 42.311041133650306 9.703373463808429 11.147546278777934
192 64 0 42.299879154611155 11.801524964325171 29.029039485728525
193 64 1 43.07023012084097 9.470294768899887 31.632039340117522
194 64 0 40.798008136851095 8.584300657052301 32.29907222895345
195 65 0 6.614402676603518 38.11783940000239 31.701720892542497
196 65 1 7.06214286566432 40.902717535355656 34.37731217680844
197 65 0 18.354466465549464 30.665827220142845 32.01998085599574
198 66 0 26.77020977459168 24.081753882158452 40.94862597371952
199 66 1 23.13385026352155 20.571322661236845 46.08728711780139
200 66 0 21.158370999117462 19.717533784653966 45.15001136812618
201 67 0 7.336255052622695 9.736872306013563 39.11428981002908
202 67 1 5.299338780238298 5.441602818246472 46.624006733170184
203 67 0 8.860788284342005 9.027970378761005 38.41036525553253
204 68 0 21.911282569968936 27.2766273040586 28.01350525639753
205 68 1 20.641971532766263 30.530344444105033 27.752425103326576
206 68 0 18.971565149158295 31.991574781697814 29.16377953354244
207 69 0 45.87250376212654 41.281596125795815 37.60239507022649
208 69 1 46.35553976893004 42.58071859520328 36.778643443215294
209 69 0 27.246763746747142 42.92859683395422 34.8907746777873
210 70 0 21.782590097768356 34.36654077714456 44.830560165834406
211 70 1 24.045637488735128 35.92746649445207 46.21119381785349
212 70 0 22.465391374194432 33.12401939345576 44.71860462677007
213 71 0 46.05833943663056 23.833169522035032 23.342588502368177
214 71 1 46.66233986916244 21.906917781517368 20.847945991090686
215 71 0 43.04039346538203 22.893540540994096 21.758471136535405
216 72 0 31.833309534125668 10.612318691683898 11.677823108783988
217 72 1 30.46138627095513 11.261892826506346 10.02648141293965
218 72 0 31.829199059472373 10.29278707947462 11.478030438997449
219 73 0 18.745382791526833 39.21171263001999 12.426625018647044
220 73 1 20.01092243898796 40.68827490868142 8.799874865200463
221 73 0 19.441320443395934 38.54675409935001 9.705176930588431
222 74 0 24.099834795992386 31.207023029222928 10.015709182598185
223 74 1 23.09461209196181 32.49059356578367 7.4368257192716225
224 74 0 23.69410742783822 29.925886369623463 10.307466322756166
225 75 0 9.93784359899636 21.93280261745049 21.861480544184605
226 75 1 7.439179732422004 20.12081500004486 21.44343952360505
227 75 0 8.1399909257018 17.976786907579367 23.051463113271943
228 76 0 15.589091700117809 25.01166828154276 16.594682283176706
229 76 1 8.087821539171658 12.303884278379396 19.166191474717348
230 76 0 19.041744397062107 22.42252510832927 15.79783667723281
231 77 0 12.377865700988503 5.5323084968207725 24.178951808578116
232 77 1 11.736857422007548 3.136422074733278 24.76557919655031
233 77 0 14.637207380028135 4.452241993384878 23.490050619589347
234 78 0 5.614730528883561 11.280127285137562 5.558907823718499
235 78 1 5.9780347103843425 12.765717041386646 4.636127807592182
236 78 0 5.660618258163343 15.95033950398466 4.9060785260254125
237 79 0 11.354931550132436 14.484706758716419 22.4623110269804
238 79 1 9.654909049692694 11.827170089768352 22.583682437424542
239 79 0 11.345181763818129 12.19967818747399 24.41589831900886
240 80 0 43.386819232008136 24.485163854596614 37.777711186979474
241 80 1 43.89498891535541 22.514752870559406 41.432968310054186
242 80 0 42.9634609648827 25.13008995462442 41.43271671977321
243 81 0 25.76254383629766 19.967679290627753 29.11586096189702
244 81 1 25.787476912050384 9.885866607853115 35.428276158997086
245 81 0 26.102826885443005 10.18719166836029 34.25437355485362
246 82 0 41.42377884804599 2.1782282790839393 9.31095005005719
247 82 1 44.66510048297892 2.4944251858335647 10.344546185714863
248 82 0 38.426449112859956 14.717272400357428 12.614945725244416
249 83 0 19.84812602283314 26.244704872046015 27.687718655946213
250 83 1 21.46269536233051 18.694925404128977 2.679479714709952
251 83 0 13.08718271075153 16.883050974087784 10.423812984068345
252 84 0 16.53045918046132 35.86721752783803 22.23191360303147
253 84 1 16.367363725279173 39.41565635075881 23.458563165086254
254 84 0 16.947406987370456 37.4455075716446 25.662425242028533
255 85 0 46.52217790005923 40.08847656033684 30.34780537840382
256 85 1 45.62902581391111 38.31320126743846 31.65193736715883
257 85 0 42.91887071894971 35.84344442851299 29.652569918107275
258 86 0 27.122456138269467 34.75902226922756 39.38944504897819
259 86 1 24.900090045053886 36.7838109417057 41.20731385215435
260 86 0 22.733725172718746 35.282939329859886 41.477046477380874
261 87 0 18.70891027904554 4.888616174655708 18.88390671632576
262 87 1 16.015890422581734 5.086968846809198 20.100416568180943
263 87 0 14.675865326366061 7.550090260476989 19.386475453720127
264 88 0 42.8795268407541 18.265820143478322 15.254072161728038
265 88 1 44.03697713014496 19.167810502129388 13.317593321382995
266 88 0 41.02964609953379 19.751968700801015 11.977281815452566
267 89 0 40.53881894554987 32.358263178492294 43.1353073503127
268 89 1 39.449639434802485 34.80985506790464 45.74184791258416
269 89 0 37.021073491623234 36.107471436373416 45.20876737639279
270 90 0 36.43453251346126 10.57108519711489 11.148515627299924
271 90 1 39.821792466629795 7.958803612313755 11.8633156498415
272 90 0 37.255435320152394 8.876841396436289 14.34238023757265
273 91 0 17.690716678632374 8.667381745245958 8.592182706484799
274 91 1 16.587955906340273 7.5663478321557065 10.607989612683165
275 91 0 16.735930175908265 17.51508302453855 20.20661453512183
276 92 0 15.24078538924711 28.237417889963076 30.45157980328216
277 92 1 9.585011398511956 33.159932279680305 32.51074036027073
278 92 0 7.326001429131222 31.84396291775931 37.13022144879537
279 93 0 18.939628357385395 10.094854584702361 11.300582507854017
280 93 1 20.81396975459937 9.614209454070629 8.954386239809166
281 93 0 11.272752984084223 2.189482228281326 14.777132456869314
282 94 0 26.288330504926506 40.86311928460844 34.40193336828115
283 94 1 25.01662822095171 42.78860340499302 36.3889735730592
284 94 0 22.342059399212612 42.1176143282923 37.54627353504041
285 95 0 12.705115418872868 16.4449699683423 42.37510432806449
286 95 1 10.477344646022685 17.29218186165434 44.167454444397414
287 95 0 13.603222225715891 17.076907019833897 41.79515055760412
288 96 0 16.734123152405203 43.11078922995857 21.962006184498012
289 96 1 15.363710240955207 42.12935261152145 23.833406845943014
290 96 0 17.993763663589416 39.02860042150315 24.231085341530935
291 97 0 29.58626457956678 4.581303713621381 8.973648937825896
292 97 1 31.486911133305615 2.769376413597817 5.725864432305531
293 97 0 31.62779149141143 6.581506447169527 8.156665491222867
294 98 0 19.052839350968693 38.78833398397288 36.83310666157664
295 98 1 17.28603567576014 38.799181304637976 36.20505272139171
296 98 0 15.956574152244064 39.34777639188707 34.452164885704065
297 99 0 30.05190680171965 23.919148513922945 38.33289490757566
298 99 1 31.314174292210218 23.86702623757089 39.17610846652717
299 99 0 32.18623064839045 24.654612471230067 36.03961424959591
300 100 0 8.251245393893688 39.125777137901785 39.629641451696585
301 100 1 5.060007674447399 41.05589446542401 42.20419714895385
302 100 0 4.8430853033098975 38.93462194431945 39.28183481448617
303 101 0 37.39200154754696 13.386957900959654 4.180402920771313
304 101 1 40.54046022111658 10.398037307931736 3.9319779405376774
305 101 0 41.91381730639602 11.463357355398982 8.099293659191416
306 102 0 27.919605854294307 23.440433842738056 42.72988248468011
307 102 1 26.56132245556877 24.6848936994743 44.010555781590384
308 102 0 26.694980714660186 26.98869086202401 43.24192203196179
309 103 0 33.557192683541714 19.2685422469637 16.038009248298668
310 103 1 28.803850121179735 37.75498035003719 15.476445886208001
311 103 0 33.73792165263437 17.803392925770567 18.28876013631002
312 104 0 35.249606720569176 8.11166403865198 12.507776952042173
313 104 1 37.53353830304382 8.477676917969651 12.079457861611285
314 104 0 34.57383790866456 10.959491495634872 12.834348682974046
315 105 0 33.5290067974421 38.79517002626656 11.954666772536434
316 105 1 35.96911170957874 38.84995383337148 11.36490539547596
317 105 0 37.40851435080979 35.82560813855162 11.63102549278811
318 106 0 23.022471377248323 38.1659274779219 40.05187541963065
319 106 1 24.459490897524127 40.739685686009864 41.44066031901762
320 106 0 23.299592325889655 40.04224653942561 38.135710644191356
321 107 0 25.803127891233046 33.772093757090495 7.27232846984653
322 107 1 26.35713361987442 36.022091955264585 6.239951852670187
323 107 0 28.533497304465893 36.288910049118826 6.444030182835178
324 108 0 23.421468948919955 15.309383628728135 16.52914998352505
325 108 1 23.99697308041919 9.69296731410096 14.679971171746425
326 108 0 20.45579188382113 15.640073821266832 16.175265422889492
327 109 0 44.467529957228614 26.35422684481537 40.3931946595028
328 109 1 44.81141010066092 24.90987457447321 41.908438389875805
329 109 0 42.64732973264272 24.349721906917928 39.93433953414653
330 110 0 20.534027112759023 33.65835625361251 4.406439187243411
331 110 1 22.800222095544857 35.734929832253655 3.6532721312116143
332 110 0 23.414817708174002 37.41649676398996 4.645838649790512
