ITEM: TIMESTEP
75
ITEM: NUMBER OF ATOMS
333
ITEM: BOX BOUNDS pp pp pp
0 50.0
0 50.0
0 50.0
ITEM: ATOMS id mol type x y z
0 0 0 27.10501274553337 24.658934973750473 32.40765270254461
1 0 1 26.976302438292784 23.08834612390019 33.00545672611641
2 0 0 26.443658621145865 25.197296877694303 34.6055058957746
3 1 0 26.037019092913194 43.55957940670202 8.6380826123978
4 1 1 26.68998609150558 43.59504313953428 6.674558651386955
5 1 0 24.855884404215953 40.01414733007782 9.483610380124695
6 2 0 39.89429644176176 25.839589113607445 37.58150497728843
7 2 1 38.30599310579925 24.444490857912466 37.64855167560385
8 2 0 35.3519011270579 25.01098289788054 34.925774193388534
9 3 0 14.917625365376763 31.526187261672487 22.003728841760037
10 3 1 14.34882581491759 34.730983985729445 23.03485199736822
11 3 0 15.557322535400594 32.22460861693915 24.63815689138305
12 4 0 33.601431878919456 19.341985126785705 26.041799442586136
13 4 1 33.953128812666066 17.882905303820746 23.716728434132023
14 4 0 34.09744320224408 15.973009885209859 24.648260885095326
15 5 0 17.70406016137785 7.9170130718646785 34.53236118366447
16 5 1 16.028836689532454 4.768087595319413 39.898443732490335
17 5 0 16.598011039809133 11.302317291658584 34.59434287307474
18 6 0 42.65850655350881 40.028789349158295 5.876690799302704
19 6 1 45.223295991499654 39.61979221439679 9.148058940233335
20 6 0 36.637617697676426 37.62325932109415 12.674543818826768
21 7 0 34.8115399858732 7.2566388279815905 37.858725047773305
22 7 1 37.427190159668164 7.3839151622382735 39.74110496750071
23 7 0 34.862764594447114 10.935301095094902 38.50779094921728
24 8 0 3.7679552728315837 17.704419589826845 14.615760310560903
25 8 1 3.6718402846878035 15.09526584898184 9.28767432426445
26 8 0 5.02907142922297 13.64253979530052 9.507970668723244
27 9 0 12.569497711154378 16.901406441547852 16.40906576525673
28 9 1 9.834513695050427 18.907746089575177 13.324555311555093
29 9 0 10.667640819017853 18.835931106177405 17.69661221581806
30 10 0 19.490385158011364 14.371239115565782 14.952572700169194
31 10 1 34.14845983516928 16.318241312502874 10.07336279524531
32 10 0 35.262562221218445 20.91730389361085 9.299746093785293
33 11 0 31.296130136710403 45.401868146945176 13.197333893863794
34 11 1 34.482433715744655 46.44484175763879 13.308850945543048
35 11 0 34.18369317173458 44.72421990470787 14.97722658149202
36 12 0 38.882014131429116 39.0171150558113 11.90781893134512
37 12 1 41.83399101418837 38.00626740527141 10.99257962967488
38 12 0 41.96073078408288 36.18199577586453 14.070461741047149
39 13 0 35.00214522419292 27.877552540888676 45.13958515239657
40 13 1 35.695882026981955 25.836306331526327 46.26611008893032
41 13 0 35.33138251542009 25.080881490645247 44.416957462594794
42 14 0 12.078212075273976 27.86271257414013 23.523885379176722
43 14 1 13.435137461084045 29.30786245642407 22.37388731764796
44 14 0 12.75361782578198 27.617018018367187 23.01476608245642
45 15 0 30.979761362037472 28.288731502791688 35.69354448995797
46 15 1 31.648579275021547 22.804335608674524 43.07202105010656
47 15 0 29.946631541781 22.198343619871977 43.91828032655198
48 16 0 43.691673673532506 35.93741470880178 42.03773841453278
49 16 1 43.694569392765544 36.08301171170264 45.4764695413254
50 16 0 40.56470273072322 36.72868451571207 42.552325340265504
51 17 0 43.4364972232981 21.55138668811365 26.441065009322983
52 17 1 44.746145061119584 23.27775140768967 24.70489442731244
53 17 0 40.946647007652054 24.552878963900888 24.308125742134166
54 18 0 36.572296028241176 9.128841899190776 26.516234263125206
55 18 1 34.54266983944751 6.554820150304501 25.864647313405182
56 18 0 36.61294953710979 5.67285988823212 24.248937519722002
57 19 0 34.77922399838555 11.955304920242586 14.37619025396924
58 19 1 38.12703855887539 12.357833343995171 15.629683867050222
59 19 0 39.269194484050985 14.687283254931538 14.339141348759833
60 20 0 12.075394306668862 43.17926740578014 30.706008992526968
61 20 1 13.264950526298838 44.55634393345833 31.23475828442115
62 20 0 19.187435224178643 40.42696206273263 33.67184564879112
63 21 0 10.699318633906424 41.982228278197994 32.14505572618461
64 21 1 10.390142839655482 43.994803125130595 34.35297004928297
65 21 0 11.658569219205269 41.18868511057675 32.573938515713316
66 22 0 17.51813361686397 22.759381276928597 26.713409253729093
67 22 1 3.368492732154619 27.29396965572999 48.16586174608733
68 22 0 17.50881328596576 21.088712356276446 28.331548846029673
69 23 0 44.21763911608914 12.819429080347007 35.04586557555138
70 23 1 46.287160610171796 11.156849329065373 33.99363428970857
71 23 0 43.31192090444783 10.048193796328425 34.27627837701108
72 24 0 36.54304558481316 30.022085728400466 40.47306415035311
73 24 1 38.61697211368126 31.364495213686034 41.477826029658516
74 24 0 36.6641088313826 31.959052335374462 38.62022320694722
75 25 0 46.569763559084606 35.46173822384532 11.690200260321303
76 25 1 45.463817550501055 35.907443464973724 12.030329547981582
77 25 0 42.21308664393053 34.98587379696458 11.037375310917984
78 26 0 21.860092689851182 14.69982538340942 27.37491088695917
79 26 1 23.577893310811454 13.74992400163116 28.51273006411101
80 26 0 25.85626779320889 12.820801010090634 28.29397165256045
81 27 0 24.498225622470052 13.058244481260656 10.64165213280191
82 27 1 26.070540223174277 10.491404186859322 10.05779612642366
83 27 0 22.55064800614335 8.996720943245846 13.58023265446671
84 28 0 10.710662825058495 28.8582552844018 30.791272415353035
85 28 1 8.183960313189392 27.497591341840025 29.151356565400246
86 28 0 11.513464273595579 26.239059969860417 27.486714697090186
87 29 0 29.455402036302125 32.65104414845013 18.714649562727146
88 29 1 31.75654027191444 35.38925846463307 16.13978844955327
89 29 0 31.760281665221974 32.52555455702456 16.675862933433223
90 30 0 48.15314560710311 17.16116611454102 42.584932345495794
91 30 1 48.06833579221886 14.684103618799908 45.084079823465835
92 30 0 47.95400695147878 17.039770948889593 43.95598040038534
93 31 0 27.524039989076922 4.0656737523658215 16.093130298641267
94 31 1 29.430120363783523 3.9306938870551864 17.62792259261815
95 31 0 28.795425625110873 8.34527756517472 18.833151745133804
96 32 0 10.443500555014191 38.55784698705591 10.783485242632436
97 32 1 8.706661500967734 39.11645189188029 9.703670488615453
98 32 0 10.205320121083643 36.463185929328766 9.15819746332661
99 33 0 43.6609925125754 38.96970553943374 22.32094763731338
100 33 1 43.41201659732677 37.543938036644 19.83999290943367
101 33 0 40.75741154799088 34.40613664192886 22.95063692516799
102 34 0 1.5571607211366738 32.22939225104689 12.3899880304664
103 34 1 1.0571996934806394 34.94047262346506 10.180509626150105
104 34 0 1.2705723517579597 32.339755747534774 12.161675956650553
105 35 0 35.999728544071104 30.011322645971873 20.82575062779083
106 35 1 38.395644348939484 30.681062125968094 20.08915507574711
107 35 0 35.7283549376049 28.266884746082415 19.452038784294245
108 36 0 35.00168213976749 43.38107751035236 44.315366596713076
109 36 1 37.07164383122171 46.590032876191636 46.09780031536918
110 36 0 34.745835284422206 45.05347396725672 41.53676119275714
111 37 0 14.684697256325812 19.111057785742783 31.039953374061884
112 37 1 14.073212242632898 19.474275376988828 29.003362551999956
113 37 0 13.925814334221052 19.299399055525505 26.68505144146569
114 38 0 7.598432082525755 23.637304706943034 19.459343456430556
115 38 1 6.188939263621488 26.098630147952264 17.419106373818124
116 38 0 7.585443316744125 28.856285872951343 17.771314941093664
117 39 0 22.269539900452926 31.637334156769935 16.88875738371481
118 39 1 24.49444949291006 32.69033227137322 16.21351458899993
119 39 0 23.003327815801185 31.565913831199722 19.091043473734466
120 40 0 20.971192708504933 43.43086326449209 24.468351925493618
121 40 1 22.86690471420929 42.91589703275641 24.283968541753286
122 40 0 24.252386304580888 40.69863383371823 26.263811239082845
123 41 0 33.08615954907654 28.898513894375466 14.472702615723378
124 41 1 31.016142208705787 25.87152238494169 14.619515941822058
125 41 0 30.573448499461566 29.076865710715797 17.376011720756804
126 42 0 23.436162927065148 45.15603293006176 31.481811190527328
127 42 1 23.684476555406935 47.10203425476311 30.16667778093747
128 42 0 25.673515864934128 47.07247638721721 31.254758026300987
129 43 0 4.085416254085385 21.780132468598822 15.035925005269696
130 43 1 5.256812501816643 20.576617651520646 15.02903118575141
131 43 0 8.49152056087856 18.89702407577839 17.85159937121397
132 44 0 10.266309336618654 20.805192917001566 40.09277113468868
133 44 1 9.48316321209828 21.328811849099676 43.95918110927308
134 44 0 8.946223064557516 24.032972351138373 44.287254296817395
135 45 0 29.144359309465838 5.108843110588792 2.78696012356942
136 45 1 30.010237343814843 3.9022004087289393 1.5349317829519054
137 45 0 29.596941439899293 6.946718487961527 1.6355143540123371
138 46 0 4.325337848466327 8.583772087912505 26.988082821020356
139 46 1 4.356856253227953 8.638177161392626 29.574966805848568
140 46 0 12.344571013280236 13.264922159744827 31.83822049713205
141 47 0 38.937889772653776 10.99173533973616 39.06463594684914
142 47 1 44.55082392644573 6.161605538058293 38.603156670770616
143 47 0 42.09736650138927 6.230235205645062 38.00781406457184
144 48 0 5.037703542098103 19.26704378362616 6.118337844382963
145 48 1 4.134155591824663 17.62974669484953 3.822086719719671
146 48 0 7.304736029601666 17.88719359761429 5.204132316562351
147 49 0 17.387135493028186 22.69470802029515 36.29943550303754
148 49 1 15.236081626905943 20.568275616367856 39.260660533668215
149 49 0 18.083254051419903 22.86787361103334 40.075962869561266
150 50 0 8.732162607264971 47.005451404794506 12.710092840128002
151 50 1 7.952172087618058 45.9997478844456 13.191845359419279
152 50 0 11.698584360257374 43.8557171665713 15.583811050991649
153 51 0 21.79205328009197 33.43735023085806 12.973400664896403
154 51 1 19.309433432164763 35.50000245448848 12.266185544623257
155 51 0 17.79402208449927 34.05018593487141 12.661537178170127
156 52 0 46.34987259734361 28.93045060379229 40.334136939980255
157 52 1 46.85944037885372 30.96646632009252 42.03234714448784
158 52 0 46.93630669051755 32.23021646374318 41.07684332213764
159 53 0 10.190818752225274 19.012775820955536 10.483092611150592
160 53 1 6.726996613678811 16.040614621053646 9.525035791144635
161 53 0 7.824929325325549 14.752090473952977 11.559288557448236
162 54 0 16.36925440134823 32.716659258156426 32.29832492269184
163 54 1 16.08575771870186 31.54040548846218 30.22636573592539
164 54 0 36.056545118071455 15.745213335478217 28.799411852860626
165 55 0 4.580410621496663 35.90759810837207 21.66528651234441
166 55 1 1.7490666932572383 39.92096006805226 22.99392489244714
167 55 0 5.066778555180885 36.31100519148591 23.262747279602486
168 56 0 6.842606402266525 17.058750399619843 24.96604912283911
169 56 1 5.83855751816657 14.113314408321804 23.238066539025002
170 56 0 5.623763597844727 14.21116985112911 24.93601323383065
171 57 0 32.3790895151153 24.33140444005704 35.50832999741139
172 57 1 45.75005797794017 27.52226949209905 37.47673152026267
173 57 0 33.155664315782715 23.913625292979013 33.57396135113076
174 58 0 18.228695665673186 18.26091625933553 35.93746014406727
175 58 1 23.235596116312486 2.1359991504616525 35.22298596466574
176 58 0 18.481477246179118 16.896205341884404 35.98902848255268
177 59 0 11.389500822430174 5.768596465969995 19.83433577186184
178 59 1 11.995820967025548 8.080159974466785 28.229809747914597
179 59 0 14.089245077462575 10.459155274230687 30.533488109974734
180 60 0 25.46646313898575 45.14474878513614 5.937540576594041
181 60 1 27.956953994059962 45.36258147143366 3.8163187883058582
182 60 0 25.775330014056408 27.039758458865755 7.594701957264957
183 61 0 21.449953174920413 28.246212992617924 29.815342703811197
184 61 1 21.405841614488306 26.686683762372493 32.45880264004799
185 61 0 19.354679159473317 25.152213779142954 31.726215146834665
186 62 0 11.159621795437168 47.895379347040276 41.01945954486049
187 62 1 8.93574703183263 48.17374234910203 42.05135826939053
188 62 0 10.60178078889961 46.88408975089669 40.45752957497428
189 63 0 44.97134785166507 8.960392209408125 14.342506927556324
190 63 1 44.63078863325337 6.211257041801389 11.109089945302358
191 63 0 42.38701381056673 9.588425621931842 11.145697535133532
192 64 0 42.323861837751174 11.729068820878497 29.109947282031712
193 64 1 43.06498397244481 9.473366784375681 31.628074290487895
194 64 0 40.85793022943187 8.607585421216777 32.281567697656754
195 65 0 6.6285403178456646 38.206744790347344 31.787047089500614
196 65 1 7.08937820144868 40.87167115436823 34.36611261089298
197 65 0 17.90454007737983 31.07363726319381 32.113854149290745
198 66 0 26.63624759564709 23.952453303240265 41.137841488908265
199 66 1 23.139117164343997 20.578058906009872 46.07399605990167
200 66 0 21.208055318678536 19.73904486547951 45.173450267813024
201 67 0 7.25901565425872 9.574377989483002 39.39857871412893
202 67 1 5.312667405732155 5.460331513648729 46.5866175064024
203 67 0 8.724769502343309 8.890805452284198 38.724304105341126
204 68 0 21.87190318010607 27.37693742245569 28.00579919218032
205 68 1 20.641620686239737 30.526575277743884 27.75525794135971
206 68 0 19.016577933554963 31.951578733005086 29.12613973725727
207 69 0 45.882589357661374 41.30335127145049 37.588773640861874
208 69 1 46.30670050065664 42.58023733099135 36.77473173953706
209 69 0 28.018114790286063 42.9145456269704 34.96698201544487
210 70 0 21.84769010155635 34.41342253529437 44.87088711940674
211 70 1 24.03844838720058 35.91915401478353 46.20577506019502
212 70 0 22.515313222241524 33.2101310531519 44.765001092250024
213 71 0 46.07698947736635 23.775875938798272 23.26865658479392
214 71 1 46.653957201078555 21.912481301373308 20.854414295436044
215 71 0 43.1557671096026 22.86175996353889 21.728995501680913
216 72 0 31.79972711453256 10.631335669485942 11.639289980607849
217 72 1 30.465548190056467 11.259441933292381 10.031196464733648
218 72 0 31.796224334175015 10.312988174900763 11.441120807452647
219 73 0 18.786598563568287 39.26041544759985 12.308810059699375
220 73 1 20.007417279554613 40.68188786871665 8.808787741471066
221 73 0 19.45618284029081 38.60025525140833 9.680383489629325
222 74 0 24.071523085979212 31.245799313043214 9.9411314427674
223 74 1 23.09761868796971 32.48308489764082 7.447258429182517
224 74 0 23.674295001149222 30.00720971063045 10.215141087848199
225 75 0 9.864369995465594 21.87964181072077 21.849120006742833
226 75 1 7.444996498489298 20.1204231683117 21.447004476491045
227 75 0 8.120397782956625 18.036222314465643 23.00679144715136
228 76 0 15.291192975836488 24.506808329628665 16.696813711378134
229 76 1 8.133678482651572 12.36059123846233 19.151428478978765
230 76 0 18.60592058380492 22.020069791190103 15.931847169320251
231 77 0 12.359426465859709 5.469479549024133 24.194944643780822
232 77 1 11.74352912688591 3.142914247886648 24.762143241104553
233 77 0 14.54889535629004 4.411186094168483 23.52903409494746
234 78 0 5.621195898444668 11.310316383177119 5.542037091574519
235 78 1 5.9770550497454655 12.769761329393445 4.637653107992468
236 78 0 5.6698444105873 15.855406880723278 4.898533522693018
237 79 0 11.304315873083299 14.406402538969811 22.465218761144623
238 79 1 9.66087215394887 11.832744047105454 22.586478118002628
239 79 0 11.300441499416895 12.18877426712455 24.36829888205834
240 80 0 43.40358996293014 24.420326432952212 37.8970966721485
241 80 1 43.89246691669914 22.52370391181724 41.425512704956894
242 80 0 42.98957824644288 25.057452833951405 41.4338659432808
243 81 0 25.763489719715427 19.573939203538036 29.36247546182587
244 81 1 25.787493356016675 9.911093733335797 35.41223550605882
245 81 0 26.10161865802685 10.177298039948495 34.26441043817819
246 82 0 41.5226338314587 2.187714467826288 9.342420825153535
247 82 1 44.643502830208035 2.5240472486302044 10.348192863627578
248 82 0 38.673159348598155 14.233781743068688 12.525114973974606
249 83 0 19.913886627910614 25.935608412350497 26.66439118953405
250 83 1 21.438202063376508 18.709816301547068 2.7622309462177985
251 83 0 13.413315002899244 16.9538922468976 10.12311958058123
252 84 0 16.525221502977615 35.97956113657 22.27024375582659
253 84 1 16.368753050354137 39.40510533133556 23.460149510696013
254 84 0 16.930658890104773 37.50306007228325 25.59919924317822
255 85 0 46.499406015388004 40.04341527688121 30.38064448941738
256 85 1 45.62490589789958 38.31096307942935 31.645801301192662
257 85 0 43.00756094183931 35.92431420176994 29.71790431327721
258 86 0 27.053859068443515 34.82155266607496 39.44557043713536
259 86 1 24.90071270774606 36.77735509108477 41.20425967397465
260 86 0 22.79237875160378 35.32364274163188 41.46977249943255
261 87 0 18.631565799029186 4.894412144601853 18.918789950996533
262 87 1 16.01834124591735 5.090975236310213 20.0969731457032
263 87 0 14.714001982219576 7.480192566697691 19.40668129531614
264 88 0 42.90978938923307 18.288868546558735 15.20460541689585
265 88 1 44.02938617329857 19.167468136709306 13.31816427744087
266 88 0 41.120839583254984 19.734398704074668 12.017612038857134
267 89 0 40.50431871199728 32.435725140725175 43.21756940983212
268 89 1 39.44755241099191 34.80728711959685 45.73578770941531
269 89 0 37.08893627210708 36.07109752292517 45.22349028787929
270 90 0 36.54662071433968 10.484799250718535 11.171709887621288
271 90 1 39.80832138914471 7.966339915370739 11.866833462612707
272 90 0 37.336255533222555 8.847667132742377 14.265024079600344
273 91 0 17.661490245017852 8.638349990219831 8.64574448229317
274 91 1 16.590144748415828 7.592744990832735 10.628365518499896
275 91 0 16.730106493589627 17.121745870072854 19.82704389574655
276 92 0 15.030076264293582 28.42068880149289 30.528427872129644
277 92 1 9.593254231129793 33.14562645776664 32.51599001965731
278 92 0 7.404821227330169 31.88958398026568 36.96938281151164
279 93 0 18.994246214491696 10.08182011309877 11.232818651698869
280 93 1 20.787034971781125 9.596720726314059 8.972975285206603
281 93 0 11.64910191389336 2.482347349676422 14.547456936491466
282 94 0 26.251135567736508 40.91899625453378 34.45976900642556
283 94 1 25.01413008358726 42.783914951659085 36.38745353221612
284 94 0 22.419220954766544 42.13676090874285 37.5127488360128
285 95 0 12.64048066817106 16.467471169372885 42.426801656931765
286 95 1 10.487644018124069 17.29027122539349 44.1594632198746
287 95 0 13.50307752130714 17.084925064112827 41.87131738322177
288 96 0 16.69782382124384 43.08532883353392 22.011146999175647
289 96 1 15.371352655763806 42.12457524193942 23.831125794790108
290 96 0 17.90755610236185 39.12944524586265 24.217951313532115
291 97 0 29.647997129547637 4.521562731644082 8.867559317208343
292 97 1 31.483322230379546 2.7810651565761257 5.737596842024671
293 97 0 31.62349309056051 6.454216638849046 8.07506806975862
294 98 0 19.016756573152353 38.78929988216357 36.818516653213216
295 98 1 17.28619283297019 38.7999351245793 36.20332037026825
296 98 0 15.990139989193057 39.334746797468206 34.49447575632984
297 99 0 30.069990120521478 23.91764845896863 38.34837757090251
298 99 1 31.31465946080782 23.86861034111202 39.16918772837726
299 99 0 32.1603508876258 24.630236276350043 36.13388441190507
300 100 0 8.144793266034204 39.190557208385954 39.71606734214122
301 100 1 5.066285994152662 41.04771040335206 42.193099989992035
302 100 0 4.849082787664949 39.00078544314802 39.37296582090336
303 101 0 37.49620197127832 13.288007542934809 4.172126937880937
304 101 1 40.53681657116559 10.406450917846747 3.941207027517514
305 101 0 41.86791602245807 11.427691093134928 7.959900792738201
306 102 0 27.886595699360292 23.47066741891665 42.76100669810589
307 102 1 26.563599708102974 24.686706890320544 44.00737580132734
308 102 0 26.691541457309853 26.92946161048276 43.26168662873187
309 103 0 33.365596991769706 20.01367167555321 16.015414624875238
310 103 1 28.828306629049436 37.65792958594875 15.48497596611376
311 103 0 33.53817470628797 18.611111319741042 18.174865377076365
312 104 0 35.30721698220195 8.118916127968062 12.496840706283969
313 104 1 37.52538321477083 8.481849566897592 12.08152609679485
314 104 0 34.66931359354517 10.880337209063075 12.810059983970865
315 105 0 33.59305699863973 38.796466098920106 11.939214568012174
316 105 1 35.967846436856405 38.844129368342145 11.36638458256364
317 105 0 37.36475255618235 35.91734870638008 11.62297634553309
318 106 0 23.065506537704884 38.24247778470711 40.094339493148425
319 106 1 24.454534338106203 40.7335038545522 41.43161168848797
320 106 0 23.33584554027093 40.06466286016714 38.23803475067552
321 107 0 25.817717152513637 33.831503661085186 7.245063397979218
322 107 1 26.35948448485734 36.018775820891776 6.241964442845704
323 107 0 28.48135443354226 36.28257681036835 6.439111206847009
324 108 0 23.442278984926833 15.109591963774724 16.46342282260181
325 108 1 23.987553652311284 9.719095812396386 14.687508115118378
326 108 0 20.585545745541708 15.4217387635883 16.12032907521141
327 109 0 44.47687466428519 26.321733812840343 40.42907883306451
328 109 1 44.80678525456855 24.91058727238423 41.90254093249449
329 109 0 42.709443087427985 24.365044964074723 39.991594423446635
330 110 0 20.60102083431447 33.72002657830361 4.384473129900729
331 110 1 22.796939090197778 35.733458458417836 3.656001634964824
332 110 0 23.40031413606644 37.37838039260736 4.6240854882768385
