ITEM: TIMESTEP
85
ITEM: NUMBER OF ATOMS
99
ITEM: BOX BOUNDS pp pp pp
0 20.0
0 20.0
0 20.0
ITEM: ATOMS id mol type x y z
0 0 0 6.580690122743984 10.373482473579664 13.667543578259504
1 0 1 4.323868615154531 9.393577063027399 13.935145344531422
2 0 0 6.420855552048328 9.063019558637638 12.369459847958536
3 1 0 10.32498626178278 17.47700426907693 3.7711377544255735
4 1 1 10.587315799607529 17.050610671952768 2.87072691071275
5 1 0 6.003766499825789 7.535554053471307 8.509657267987622
6 2 0 6.980189363245771 3.523224197460181 15.337336447113168
7 2 1 6.043060045913001 2.266872145843334 14.831060652755475
8 2 0 5.739266164143961 3.2018844638357566 13.676401738374823
9 3 0 3.829555040901803 16.239899276596557 9.473132120299526
10 3 1 3.5396335375296095 16.148724846901985 8.209838748638106
11 3 0 5.192804400020233 16.06762133317232 8.969090637100866
12 4 0 12.560557641137757 5.95318338029057 10.082219214213653
13 4 1 7.682686025534999 6.5237054133377494 2.1924905418517815
14 4 0 12.755500200757698 5.5506736864846795 8.539404109166265
15 5 0 7.14796543789453 14.293786783828654 15.002222784420916
16 5 1 6.456401432527347 16.851741955351745 17.040945899625946
17 5 0 6.826058079472627 15.328386462484868 14.827028498531448
18 6 0 2.377995903502224 12.160121463159642 15.034506203491263
19 6 1 1.8187882406796734 12.91907158763844 15.881181044034522
20 6 0 1.7177907432113408 11.688721084903255 15.871467822414903
21 7 0 14.111315384617392 6.624765396583112 13.892922703712685
22 7 1 12.165702689330134 4.56186235267334 14.602360667819866
23 7 0 11.103635280837677 5.144002765334123 14.0512573946882
24 8 0 2.846978186069647 4.087780794333343 5.738000914222637
25 8 1 2.0303740543498052 5.808023990319731 3.31236440687636
26 8 0 2.589319267753292 4.991627658235722 3.6762033460572776
27 9 0 8.55551562327183 5.307411182010719 10.378659169307857
28 9 1 10.122468887634172 4.049528882619091 10.055322523601664
29 9 0 9.255856038270396 5.379124457071815 10.045819899323178
30 10 0 15.743845279918467 7.402183276629624 13.848459479546511
31 10 1 15.30519511870215 7.575470405665358 16.67870276824911
32 10 0 13.56678730832865 7.0666243971126885 15.511364082782515
33 11 0 7.9412978995127075 11.921976970628934 17.41726763678855
34 11 1 4.8121218168197775 14.854352944090842 19.151660022141478
35 11 0 9.457648657851548 11.147155451833228 16.675443766419587
36 12 0 8.509254414545481 11.921905597900414 15.023475575794556
37 12 1 2.4702374346720912 2.679414672441441 12.277041502326204
38 12 0 8.244418234444463 11.444474734078497 15.075937566602022
39 13 0 10.55565336200991 17.692264383987165 9.06846773265655
40 13 1 6.971032476000248 19.377034496493263 14.04318210523258
41 13 0 9.614741910054624 15.256509804725077 10.76570078029069
42 14 0 16.692159763436372 16.099438947067558 12.510781167895352
43 14 1 17.925229018628126 17.19714909281465 11.962097841121434
44 14 0 16.580022294503515 16.296238451228643 11.741434651032705
45 15 0 12.66681561654309 9.332555041041948 16.737535171080662
46 15 1 12.732462882545832 8.77125774444968 17.709217904549366
47 15 0 11.62170683741 8.694407639794804 17.83558510075163
48 16 0 15.537135455540476 13.822466303111888 18.144697681200007
49 16 1 17.02895019229957 13.511783957084093 18.38101333543691
50 16 0 16.285038311806595 12.329385737279562 17.3177952085694
51 17 0 9.8351546906035 6.890151429539958 4.595537874426082
52 17 1 3.7768757235798547 5.717645968098962 4.90667479458039
53 17 0 9.234427378243558 7.57768932284988 4.08072505061282
54 18 0 16.721370792230516 2.583010463843426 8.900966211486416
55 18 1 16.871368912239774 1.2605360116022892 7.959928004259482
56 18 0 15.907941198340387 1.347266713346341 8.214000472018384
57 19 0 16.396469818987157 4.0673009469451875 7.177948194806968
58 19 1 19.135245792541188 3.5771184355977668 8.73708484176143
59 19 0 15.392909822975344 6.752464504164992 11.884991607616122
60 20 0 9.72655871757734 9.415282590530541 7.6263944720037795
61 20 1 5.041815449378344 17.900184575557375 12.304887495702852
62 20 0 5.872840849181087 17.268965103797733 12.734021924889337
63 21 0 13.893827709387114 5.265400549069403 11.213952563257179
64 21 1 13.632999629274726 7.111524259410417 11.461751579590613
65 21 0 13.150113567718511 7.44492691185248 12.72655195944975
66 22 0 13.248023369857009 1.698951030683676 4.526181953520509
67 22 1 14.400538761717291 0.8329588355187563 4.495416215940593
68 22 0 13.151308142433766 0.6979446815461998 5.327924911142459
69 23 0 17.60853824690039 5.291738870928481 14.090383850570424
70 23 1 18.516642879937898 4.467636050928741 13.587521694710167
71 23 0 17.233978186356826 3.9297080736804606 13.691819741508747
72 24 0 0.9893424570689355 18.123150064884843 12.686357713496257
73 24 1 1.0575291956073352 18.436371122572652 10.895458753559442
74 24 0 3.1157369484837467 17.467466244573703 10.463779908683827
75 25 0 6.974077255387159 15.094390149655993 11.388047609053968
76 25 1 11.105090724899357 14.126998209781839 12.495702235743003
77 25 0 6.8760462575469745 15.909955602868393 11.709089765463785
78 26 0 8.646286877254107 5.402736833677694 7.943889565240636
79 26 1 9.687745706988057 3.6808271956887357 8.189885503595017
80 26 0 10.096994667280814 6.026324357041539 9.543904126216313
81 27 0 6.22581893424044 9.97617920917405 15.38645324458003
82 27 1 6.573765644382544 9.510873706782585 16.622881361132787
83 27 0 7.458207415308583 8.799015678210825 16.71288444970214
84 28 0 7.153088002074359 9.423315051363105 15.027846206444336
85 28 1 9.833592863227302 7.2731847949263715 16.88428242771074
86 28 0 10.13406280708813 7.2196083513891995 15.190554824855544
87 29 0 12.42462321338985 6.3652218150242295 7.078290206558468
88 29 1 17.655816821112182 1.553391721168118 4.353031140283811
89 29 0 5.881184142119845 0.45086760203801696 9.521747788434677
90 30 0 17.323168499819193 11.29026848663299 10.635892519501748
91 30 1 18.064485706755224 6.098986768268784 16.77990038916641
92 30 0 10.931274243756025 11.254200520513875 11.433483785602068
93 31 0 13.15504488868129 1.5230437423137957 8.846401836549367
94 31 1 11.862794765035947 1.2111194757215997 7.704108229351189
95 31 0 12.589610560197896 2.1252230249367177 8.770924345812473
96 32 0 10.141518627927361 14.63401326974363 5.005849931877565
97 32 1 15.604651804873374 10.119591312181667 5.778322890654401
98 32 0 10.43352619073576 15.698712824175855 4.314267361575316
