ITEM: TIMESTEP
86
ITEM: NUMBER OF ATOMS
99
ITEM: BOX BOUNDS pp pp pp
0 20.0
0 20.0
0 20.0
ITEM: ATOMS id mol type x y z
0 0 0 6.513881575569878 10.346038381140401 13.677112713399294
1 0 1 4.332110985004286 9.394747888033022 13.931612200036646
2 0 0 6.355774353766263 9.071703138257092 12.416378143010212
3 1 0 10.327739292986628 17.480569510010117 3.7664713096313553
4 1 1 10.574455657696888 17.024046570320643 2.8866342558997835
5 1 0 6.2067711720046725 7.9569370705007545 8.259887843824478
6 2 0 6.961938876640988 3.49697870310339 15.328789453682198
7 2 1 6.043955170696023 2.269643392595574 14.830383717456723
8 2 0 5.743220363025215 3.18376936724177 13.695815094854272
9 3 0 3.8192483775288792 16.239504638794042 9.45878259347485
10 3 1 3.542537413331862 16.14865796875608 8.21200756537196
11 3 0 5.156665797279919 16.069034699470855 8.94865055102299
12 4 0 12.350049195416265 5.977897400330896 9.74205134231242
13 4 1 7.7092901396823965 6.519588321974603 2.230594597851757
14 4 0 12.540391058601669 5.591861282013559 8.26987707332335
15 5 0 7.124610440069945 14.380504237840519 15.073459174629654
16 5 1 6.458617127335441 16.843235221463264 17.032300143787108
17 5 0 6.813912188977575 15.377676814862467 14.894273601047106
18 6 0 2.374255017385804 12.174434072019935 15.041265386338758
19 6 1 1.8192185953707654 12.917338389710698 15.880387684049715
20 6 0 1.714584149944388 11.702152233707018 15.877400679627739
21 7 0 14.048635573159043 6.557932760459123 13.915986663976698
22 7 1 12.168781270153028 4.566585852308495 14.600433593665981
23 7 0 11.11704999412742 5.135136451310608 14.059048231167742
24 8 0 2.819029291471354 4.1458408830665645 5.658577583931563
25 8 1 2.0330871484025272 5.804289117697541 3.319251926538673
26 8 0 2.592098557327035 4.992742890811922 3.6618862755910517
27 9 0 8.593044169755055 5.272130035305678 10.372240462877386
28 9 1 10.114627154271904 4.049607232031018 10.038173213135858
29 9 0 9.277655908341647 5.357383566788694 10.042462703882482
30 10 0 15.730847846468157 7.407985976982658 13.939215822906423
31 10 1 15.303161755536664 7.574273780827613 16.671007267864145
32 10 0 13.61207592357493 7.080104260133679 15.544091805753865
33 11 0 7.821501890861991 12.032887455668225 17.483464211976216
34 11 1 4.831479637324112 14.837916601691902 19.14118955031192
35 11 0 9.267795699740757 11.299326350361767 16.776744547263974
36 12 0 8.24331467889673 11.514958708596415 14.902372961853498
37 12 1 2.5026760451072567 2.7288680846873294 12.292266463256908
38 12 0 7.991301139331903 11.060176686173461 14.953405100633587
39 13 0 10.409294265148036 17.761350948992458 9.271541683770824
40 13 1 6.9867988337114495 19.362338617569083 14.022191738079774
41 13 0 9.508192044025652 15.42212400166062 10.897834375809408
42 14 0 16.721073577264256 16.122961516262215 12.504038982967824
43 14 1 17.921776388893512 17.194441839699987 11.962622384559362
44 14 0 16.606354993842764 16.316036449015737 11.739781596038435
45 15 0 12.669720432458908 9.328720807051477 16.744199359391015
46 15 1 12.73182637485329 8.771519083492466 17.708705666303665
47 15 0 11.62965320021538 8.693719130422187 17.836844010772314
48 16 0 15.564445808992142 13.819670009829245 18.15106764898259
49 16 1 17.026082267237868 13.510431936428587 18.379180788943255
50 16 0 16.303623588957247 12.353828734454499 17.340753842564617
51 17 0 9.589151411839783 6.842116998295669 4.608449705563137
52 17 1 3.804819663439766 5.725325277912569 4.90278766507443
53 17 0 9.015055083761712 7.503439094672072 4.113572835554495
54 18 0 16.727145683425093 2.5573637549860613 8.882141532956435
55 18 1 16.87100237893591 1.2625432850839486 7.961390452073197
56 18 0 15.90815555431429 1.3408549272996 8.209545195478432
57 19 0 16.48875083298456 4.050490924091079 7.229839519349935
58 19 1 19.120064052843233 3.586144691036392 8.741743117864832
59 19 0 15.5431135586514 6.624878404377574 11.758449342872163
60 20 0 9.521061503595675 9.787381516208198 7.83148151396466
61 20 1 5.055061014511004 17.87637080702054 12.291832480702153
62 20 0 5.867114940760663 17.27841981120246 12.738436149280687
63 21 0 13.88760382731288 5.308839639010393 11.220032071228726
64 21 1 13.63296147023862 7.109147670177507 11.462547921141772
65 21 0 13.157345772798998 7.439483262768235 12.707725250808037
66 22 0 13.26894225262008 1.6884159572247512 4.521761658137214
67 22 1 14.39775923379226 0.8337438614463442 4.4964592058072075
68 22 0 13.174998750770316 0.6959252257119746 5.3155350237491135
69 23 0 17.624143941185263 5.284495530095221 14.084195806543612
70 23 1 18.514373515283506 4.467834541597952 13.588116516743572
71 23 0 17.254717002420904 3.9337426448618786 13.688472338125177
72 24 0 0.9903060457110755 18.130560564187434 12.645692964831845
73 24 1 1.0610892621183696 18.434198701988922 10.897265009852983
74 24 0 3.0577094390555724 17.494858789806468 10.475557392008367
75 25 0 7.129108357110699 15.05712385101977 11.429194456479662
76 25 1 11.085297343894648 14.133532696121351 12.491226959137547
77 25 0 7.037738693860782 15.84266059789277 11.739545797406054
78 26 0 8.67113298228511 5.357988148442727 7.948346270625614
79 26 1 9.691050080722329 3.691726743851196 8.20994367466064
80 26 0 10.08539635256498 5.952368495909175 9.502659923304348
81 27 0 6.2315657324053895 9.968995073282175 15.403697404838178
82 27 1 6.573850586920298 9.510975178716182 16.621826368089963
83 27 0 7.451742845898264 8.804446547560406 16.71074220376385
84 28 0 7.249484637027723 9.34551223087314 15.09745021829333
85 28 1 9.82779809257934 7.278083522667687 16.87777547632768
86 28 0 10.12974913246518 7.219188081608537 15.226935162665391
87 29 0 12.64427231377068 6.162938387167036 6.963838549150292
88 29 1 17.60929957811886 1.5629523141756558 4.374569222478017
89 29 0 6.405701361570183 0.5001465103980284 9.291512999667429
90 30 0 17.35450956472309 11.07030067231511 10.896238814428022
91 30 1 18.043045698503526 6.12680511278673 16.749055795762985
92 30 0 11.24255482320321 11.029316217796131 11.666685935359578
93 31 0 13.129151955807849 1.511408050219993 8.82042222991436
94 31 1 11.865556294312233 1.212634767044221 7.707043753504258
95 31 0 12.571197884179947 2.1126475275372227 8.749974878702972
96 32 0 10.368617141286805 14.445950987196994 5.038187134285853
97 32 1 15.576827576632422 10.146027980932205 5.772455596052588
98 32 0 10.65162466641515 15.463875735938082 4.3757147955750275
