ITEM: TIMESTEP
91
ITEM: NUMBER OF ATOMS
99
ITEM: BOX BOUNDS pp pp pp
0 20.0
0 20.0
0 20.0
ITEM: ATOMS id mol type x y z
0 0 0 6.243239161791565 10.235991108655849 13.717054081577027
1 0 1 4.365541818611364 9.399482166185484 13.917265692051672
2 0 0 6.091437410696657 9.105871708130888 12.605773527626075
3 1 0 10.338254698394824 17.49319538955485 3.748058717159145
4 1 1 10.522107680619674 16.91596096362555 2.951378848630294
5 1 0 7.0338197675670475 9.67372433084969 7.242352807261392
6 2 0 6.888139578167235 3.3893272916037365 15.295178145727007
7 2 1 6.05488774042287 2.272521603489969 14.835219943607612
8 2 0 5.758656812249983 3.108675684472853 13.774670836670706
9 3 0 3.7726444700663775 16.238435826671456 9.401569160363955
10 3 1 3.554557488976918 16.148373727729624 8.220922038775445
11 3 0 5.011025311101126 16.074406957530332 8.862816950163952
12 4 0 11.499347092450654 6.0773421693888015 8.365623432133322
13 4 1 7.816760882993179 6.502967372915153 2.3845386441990746
14 4 0 11.67178269981517 5.758511436050458 7.183135066413246
15 5 0 7.030383555300951 14.730709876053414 15.363347809955085
16 5 1 6.467593187580206 16.8087703479929 16.997388997225013
17 5 0 6.764263049381031 15.578400208286949 15.163709340837563
18 6 0 2.3607156903328876 12.23632409969336 15.066925385142314
19 6 1 1.8210287108763694 12.910029423402547 15.877045680265308
20 6 0 1.6988680539996155 11.757263439776144 15.905204263805159
21 7 0 13.79309784060052 6.285682956308518 14.009895373657988
22 7 1 12.181298683632786 4.585827103914627 14.592574862428242
23 7 0 11.172244231577778 5.0989319097755 14.090948928360081
24 8 0 2.7051170841961247 4.383712768096534 5.336851419974255
25 8 1 2.044052362052285 5.78920354806303 3.3475604296340213
26 8 0 2.606055098385616 4.995486452542165 3.5945817530779105
27 9 0 8.49441855534816 5.723614183995791 9.99159383035829
28 9 1 3.7125041235224128 18.65286014422857 1.7927737499057717
29 9 0 9.103354811296972 5.852281376533833 9.68653070992788
30 10 0 15.678906913015869 7.433805820028287 14.307952597733196
31 10 1 16.74714369153309 10.354411075380193 16.308933802243104
32 10 0 13.79653292541742 7.136089284193831 15.67736476837708
33 11 0 7.338961422451041 12.478191697413786 17.749880887638874
34 11 1 4.909716549161504 14.771563225185178 19.09888089426572
35 11 0 8.498922053447886 11.916181590776 17.187089072149437
36 12 0 7.168596910404257 9.870389821083188 14.412905022870417
37 12 1 2.633711776534858 2.928639927894494 12.353764809635557
38 12 0 6.9692774030034625 9.50844307833052 14.45877193536374
39 13 0 9.816763625506304 18.038276587818963 10.094007093347852
40 13 1 7.050494010657417 19.302947402509925 13.93734408037054
41 13 0 9.078619110853335 16.09343918740275 11.430027798263698
42 14 0 16.840528050157786 16.21822291483619 12.48148639755845
43 14 1 17.907663093719826 17.183364926675235 11.964795587835454
44 14 0 16.712733980406433 16.398027148079986 11.72755053680946
45 15 0 12.682660675072311 9.313125957099157 16.771313608663746
46 15 1 12.729171658985855 8.77260788865103 17.70655323396862
47 15 0 11.662224749615993 8.690369380262492 17.842924448265116
48 16 0 15.675549906784175 13.810357226854844 18.178440226494228
49 16 1 17.014305893879985 13.504872495136162 18.371649846558757
50 16 0 16.380987677780176 12.452184749532012 17.433923765257735
51 17 0 8.59403179336685 6.6481414127580445 4.6600675267545935
52 17 1 3.9176779921397205 5.756244296360438 4.887307557949432
53 17 0 8.1287242305146 7.20337826602319 4.2456711020244216
54 18 0 16.752667845463456 2.4533792972581994 8.805395989771574
55 18 1 16.869404335790716 1.2708698578578506 7.9674720642764685
56 18 0 15.908834412562623 1.3119265610562545 8.189504536397527
57 19 0 16.860776220134827 3.9846306911494804 7.443035483163541
58 19 1 19.058608419281786 3.6227152391044237 8.760680206525517
59 19 0 16.154035555275996 6.105323995258498 11.242050896168545
60 20 0 8.683915713771656 11.303189161644234 8.666865332549246
61 20 1 5.1088009120774105 17.77939502084332 12.238300347115949
62 20 0 5.847700102343722 17.316694357425625 12.762387207402567
63 21 0 13.86199268772512 5.486029349566312 11.245454996042248
64 21 1 13.632769050193334 7.099578568867449 11.465678464352715
65 21 0 13.187034375958977 7.416223226734871 12.63068286919581
66 22 0 13.35578800199817 1.6481953209129696 4.500792778150599
67 22 1 14.386308709565608 0.8369997683036777 4.500774435055196
68 22 0 13.272747302920175 0.6842728777802024 5.26688404165384
69 23 0 17.690064877125344 5.257470383809254 14.059323856755531
70 23 1 18.504923889479212 4.468663572027585 13.590596696130744
71 23 0 17.34015968356727 3.947347059153549 13.673607042934464
72 24 0 0.9947041293866218 18.16058504912177 12.479634868703378
73 24 1 1.0755698952200403 18.42536116248836 10.90461873764193
74 24 0 2.821136838054056 17.606448701174887 10.524022114242088
75 25 0 7.754971423945926 14.906016999334511 11.595015493585091
76 25 1 11.005324057686266 14.1599447234779 12.473148819955874
77 25 0 7.691564300676987 15.571121517289185 11.862956223636147
78 26 0 9.068753717689518 5.3723636823705165 8.31061732879014
79 26 1 14.612204076972608 6.258131289420594 16.7926162214272
80 26 0 10.302948644445301 5.848787588186769 9.652074007188716
81 27 0 6.255684057462756 9.939204755303562 15.473738698617375
82 27 1 6.574316093613738 9.511316810834394 16.617523525170586
83 27 0 7.425282802088761 8.826837608669859 16.700920405782785
84 28 0 7.639953606118756 9.030002183543111 15.381062252271166
85 28 1 9.804138161367836 7.298056516347154 16.85142653870046
86 28 0 10.11274541841496 7.217181137736507 15.373914040923031
87 29 0 13.522293030577346 5.338769538253203 6.505070252773719
88 29 1 17.42124691023119 1.601495490044021 4.461610306405333
89 29 0 8.535235753318503 0.7072533123835122 8.357324515632762
90 30 0 17.472924845280385 10.181905907429291 11.948687403368602
91 30 1 17.956282860839963 6.239255657600542 16.62443513775542
92 30 0 12.50907621439943 10.120342366862518 12.608346153008279
93 31 0 13.026182859600244 1.4596494339286883 8.713960662668375
94 31 1 11.876889545853738 1.218792640898652 7.719059328973103
95 31 0 12.49237843031694 2.065921682604234 8.664382447346037
96 32 0 11.28578922901671 13.687354376750385 5.168266579318876
97 32 1 15.464429675710873 10.252831844674157 5.748747748783619
98 32 0 11.532847891519038 14.513611908914214 4.624946214473367
