ITEM: TIMESTEP
92
ITEM: NUMBER OF ATOMS
99
ITEM: BOX BOUNDS pp pp pp
0 20.0
0 20.0
0 20.0
ITEM: ATOMS id mol type x y z
0 0 0 6.202068970239109 10.219512439012354 13.723402018498724
1 0 1 4.3706351491398765 9.400200990812614 13.915076769109504
2 0 0 6.051087371332257 9.110829020497736 12.63440923843017
3 1 0 10.339751660410563 17.494684902638966 3.745254518704205
4 1 1 10.514109470710176 16.899459040899664 2.9612787137658025
5 1 0 7.160295267464424 9.936272465882134 7.086753489801064
6 2 0 6.877031509059886 3.372646409182854 15.29035060903251
7 2 1 6.055438081766674 2.2743078780772676 14.834759232533568
8 2 0 5.760988022485962 3.096756891992607 13.786896589481458
9 3 0 3.764677017566305 16.23836646284559 9.393003556508987
10 3 1 3.5564305098445756 16.148328470378466 8.222304007288349
11 3 0 4.989037580222771 16.075156378234116 8.8491995102015
12 4 0 11.370339870790795 6.092369246510536 8.15666561292951
13 4 1 7.833050369701059 6.500451605013015 2.4078807467239582
14 4 0 11.540204707572007 5.783794045873243 7.0187277827672085
15 5 0 7.016142672988621 14.783714067853305 15.407715174267178
16 5 1 6.468958828301282 16.803526460810314 16.992099410433365
17 5 0 6.756604037111698 15.609202247078482 15.204113988972903
18 6 0 2.3589338860472244 12.24643016062972 15.070534894944442
19 6 1 1.8213158650577672 12.908865900837773 15.876514550541206
20 6 0 1.6960030584166177 11.765783713207169 15.910091264421578
21 7 0 13.754001002012052 6.244052306801143 14.02425416430931
22 7 1 12.183253025496107 4.588744157315789 14.591462946272676
23 7 0 11.180766753623827 5.093365735468886 14.095859871222883
24 8 0 2.6876807988080813 4.420342582810373 5.288002323421796
25 8 1 2.0457276291319655 5.786907637225443 3.351945212561832
26 8 0 2.6085741164622887 4.995728394754514 3.58273422242745
27 9 0 8.312363215837305 6.215727895737695 9.67954581156131
28 9 1 3.7367001788287717 18.591659157457077 1.8310494343336206
29 9 0 8.898260282258857 6.339382394127916 9.386135977813156
30 10 0 15.75293405432696 7.604420032190011 14.36612352305351
31 10 1 18.03487172984641 12.829780640871377 16.009033189757815
32 10 0 13.936670610810568 7.321553185194436 15.690448404734038
33 11 0 7.265992541200272 12.545181635997457 17.79011427892761
34 11 1 4.92158292950649 14.7615147579366 19.092465732191613
35 11 0 8.382097569481122 12.010061620004487 17.249461417907835
36 12 0 7.005632631260726 9.621015620098344 14.338664702029643
37 12 1 2.653572322505542 2.9589191827181422 12.363085304223086
38 12 0 6.81445171392182 9.273351192202353 14.383869427537629
39 13 0 9.726748703564438 18.07994707697649 10.218998490636576
40 13 1 7.060149758378563 19.29394068183154 13.924473292254765
41 13 0 9.01362785603573 16.195522127010065 11.51047138959818
42 14 0 16.85914400029805 16.23271373282434 12.47895241958611
43 14 1 17.905490704136376 17.18165856575826 11.965134427449584
44 14 0 16.72887959284504 16.41084734736674 11.724655663730678
45 15 0 12.68483420042949 9.310742017020024 16.775454420274222
46 15 1 12.728720655605644 8.77279545419429 17.706227238435698
47 15 0 11.667241402560762 8.689764174791629 17.844016165595033
48 16 0 15.692530183284603 13.809323333493237 18.1829006364516
49 16 1 17.012579930522747 13.503941874994554 18.370260148727382
50 16 0 16.393177390160744 12.46698991937618 17.448075466858928
51 17 0 8.44298675625288 6.6187074005760085 4.667831891775011
52 17 1 3.9347711332045687 5.76091448045632 4.8849845369038025
53 17 0 7.99433963032909 7.157895831918278 4.265497202049429
54 18 0 16.756932643012576 2.437564012285697 8.793646975334237
55 18 1 16.86913973234796 1.2721685536179597 7.9684233383075815
56 18 0 15.908919840579895 1.3070258631669438 8.186115825140302
57 19 0 16.917076394071216 3.9749366194317455 7.475870968849297
58 19 1 19.049270423374743 3.62827777313203 8.763571847430299
59 19 0 16.247105683997525 6.025953163945805 11.162911837607128
60 20 0 8.555901035481169 11.53496947903656 8.794582743602106
61 20 1 5.116995919265986 17.764561743650535 12.230063630495986
62 20 0 5.845165963096143 17.32267731182712 12.76694068679201
63 21 0 13.858031901011438 5.513160759820096 11.249455383847346
64 21 1 13.632730568006862 7.098119194638309 11.466164136168176
65 21 0 13.191611537508543 7.412483263934966 12.61884709464661
66 22 0 13.36938933103373 1.6425193976409966 4.497045067109438
67 22 1 14.384534206071862 0.8375104371409152 4.501447527876338
68 22 0 13.28794459841322 0.6818641400237567 5.259764713010328
69 23 0 17.700576213180238 5.253771630910539 14.055574817179924
70 23 1 18.503440281771585 4.4687951770125585 13.590987050527975
71 23 0 17.353411712457397 3.9489235029262995 13.671111485043369
72 24 0 0.9954337196121193 18.165159737809724 12.454176829523172
73 24 1 1.0777818535543628 18.424010926773455 10.905743588784114
74 24 0 2.7849304479564845 17.623516263878486 10.531495410154783
75 25 0 7.849761643024534 14.882945797595248 11.620048935874122
76 25 1 10.99319903318166 14.163951319600862 12.470408755641646
77 25 0 7.790790408222811 15.530076823539488 11.881758554479164
78 26 0 9.231324940046608 5.327644900119339 8.630023288981784
79 26 1 13.293594403202256 3.7671794805357064 17.051704360031152
80 26 0 10.418110212602343 5.788258632868792 9.916622919348379
81 27 0 6.259498477791302 9.934557792569617 15.48441298781843
82 27 1 6.574383640242472 9.511366201774173 16.616900443938796
83 27 0 7.421218715446214 8.830304688290092 16.6992301988662
84 28 0 7.699668892014502 8.9818471562556 15.4239245398973
85 28 1 9.80050686214612 7.3011181630104875 16.84741788694006
86 28 0 10.110299301289867 7.216777689922087 15.39622894995052
87 29 0 13.653912929848882 5.212760747885749 6.436099315948874
88 29 1 17.392714751520955 1.6073223385915325 4.474809867628642
89 29 0 8.859729716615227 0.7399217454969834 8.215062813943437
90 30 0 17.48959564585535 10.047282255142573 12.108323266595109
91 30 1 17.943153037261666 6.256288602815243 16.60554246481055
92 30 0 12.702482932155423 9.98247393916977 12.751026471451087
93 31 0 13.010878848295304 1.4509032957166959 8.697533762631805
94 31 1 11.878641698595372 1.2197350092401693 7.720912312312338
95 31 0 12.47958330731692 2.0595869126103374 8.651209075024852
96 32 0 11.424744477447218 13.57252534834321 5.187916985349127
97 32 1 15.447393698779615 10.269021985172465 5.745153225777656
98 32 0 11.666473205245477 14.369397773091436 4.662806158069039
