ITEM: TIMESTEP
94
ITEM: NUMBER OF ATOMS
99
ITEM: BOX BOUNDS pp pp pp
0 20.0
0 20.0
0 20.0
ITEM: ATOMS id mol type x y z
0 0 0 6.109671583838756 10.182925587623568 13.73806847187924
1 0 1 4.382079589887252 9.401813064129055 13.910156009980524
2 0 0 5.960335627002724 9.121579557384308 12.698388349577092
3 1 0 10.342989003022906 17.49740055210819 3.7388894088478475
4 1 1 10.496129693698839 16.862384763258326 2.9835468083089274
5 1 0 7.444738764183637 10.526757381860456 6.736818591899623
6 2 0 6.852148146852026 3.3349699815254907 15.279761260756052
7 2 1 6.056683230508728 2.278350156747736 14.833715887565376
8 2 0 5.766019630527243 3.069708261799388 13.814245649545596
9 3 0 3.7457195932047234 16.238321510917935 9.373911070502519
10 3 1 3.5606863945670915 16.14822502767746 8.225440759666311
11 3 0 4.939931817813133 16.076750018802656 8.817931206416468
12 4 0 11.081334170724524 6.125997739068545 7.688375145400918
13 4 1 7.8695263264422275 6.494821791152492 2.4601681886777667
14 4 0 11.245670749574042 5.840417855106779 6.650847854478362
15 5 0 6.984329322161023 14.902238866151121 15.507674811922717
16 5 1 6.472024257892919 16.791755527249684 16.980254636847242
17 5 0 6.739246750228439 15.678774533414769 15.294012496936896
18 6 0 2.3552568424558276 12.26993926734295 15.078298400101499
19 6 1 1.821974460597402 12.9061916452329 15.87529514867369
20 6 0 1.6890157100218421 11.785086602745308 15.921834372531551
21 7 0 13.666063484750033 6.15041463592058 14.056559633534901
22 7 1 12.187693602623078 4.595259040425253 14.58908063188186
23 7 0 11.200028538438554 5.08078827175181 14.106960003574821
24 8 0 2.6484040626549996 4.503022699886923 5.178607522188651
25 8 1 2.0495119439876426 5.781743236801893 3.3618851535766128
26 8 0 2.6145919760658813 4.996223407742945 3.554264774210562
27 9 0 7.904847343867894 7.317824571529117 8.980640388344012
28 9 1 3.7908863103947215 18.454604789339683 1.9167689961146441
29 9 0 8.438787903708095 7.430165045129117 8.7135157575881
30 10 0 15.935049823446088 8.020216228856903 14.496405513488812
31 10 1 18.002350596000163 12.775892479803218 15.999831909052565
32 10 0 14.271469315688469 7.772093651941865 15.716856358966632
33 11 0 7.1026785334476505 12.694549743440335 17.88007542000332
34 11 1 4.948168596828743 14.739023947420742 19.078095847045745
35 11 0 8.120208567294794 12.22077953902264 17.389323520050972
36 12 0 6.640600070483619 9.0624448013216 14.172306365247916
37 12 1 2.6980482066659164 3.0267277297437145 12.383956898676855
38 12 0 6.467796438022567 8.746976230944673 14.216187492043913
39 13 0 9.524948345217835 18.173007466713585 10.499249950753091
40 13 1 7.081775970740527 19.273764308144692 13.8956359633203
41 13 0 8.868182519333626 16.424432454478712 11.69043231863874
42 14 0 16.901506594656627 16.265244866969084 12.47441340071464
43 14 1 17.90057993498793 17.17779971865117 11.965904977517123
44 14 0 16.765097151909742 16.44008183162491 11.7168462066836
45 15 0 12.689941930962519 9.305383661641487 16.784762586359026
46 15 1 12.727686980913003 8.773225630659786 17.705484452390813
47 15 0 11.678560130666414 8.688296051859323 17.84665916503363
48 16 0 15.73074988450742 13.807485677229066 18.193275423448735
49 16 1 17.008711732747987 13.501817457656106 18.367024610837777
50 16 0 16.420988940532975 12.50001241326363 17.479857474628556
51 17 0 8.1045054951494 6.552686278590507 4.685188461351177
52 17 1 3.973025908595617 5.771357573486522 4.8797914286164605
53 17 0 7.693365207851146 7.056110119938152 4.309605838595337
54 18 0 16.766971152947672 2.402095904638122 8.767203278589573
55 18 1 16.86851863903714 1.2751185340063327 7.970587533513363
56 18 0 15.909108432353632 1.2954548426610972 8.178117899217877
57 19 0 17.04311220655283 3.95348087701091 7.549892443710713
58 19 1 19.028328666879005 3.6407592903181354 8.770073506230858
59 19 0 16.456037232144094 5.847544582409065 10.984770459090917
60 20 0 8.267996805313578 12.056216685202845 9.081772687246893
61 20 1 5.135416150284655 17.73118891737992 12.211494179371613
62 20 0 5.8397148243455455 17.336429820724245 12.778012782876118
63 21 0 13.84907193933815 5.57421521458587 11.2585888906749
64 21 1 13.632645443120882 7.094848334173969 11.467250608007326
65 21 0 13.201944591206964 7.403859958580876 12.592175201385738
66 22 0 13.400408667941873 1.6303185459914544 4.4879448652270915
67 22 1 14.380514906403157 0.8386776931152852 4.502978872308832
68 22 0 13.322465052392602 0.6756677170508609 5.244133243096111
69 23 0 17.724754174673535 5.245964293276796 14.047200123934603
70 23 1 18.500054776175936 4.469097376223685 13.591879049162397
71 23 0 17.383461198520386 3.9518606258155575 13.665225898223332
72 24 0 0.9971119950362797 18.17544285568962 12.396850721932545
73 24 1 1.0827554881796821 18.420974480948345 10.908275125492688
74 24 0 2.703468257261849 17.661909814635365 10.54834885700707
75 25 0 8.061951259774558 14.830974018450236 11.675943633696225
76 25 1 10.966040418568719 14.172928888166968 12.464272610223333
77 25 0 8.013173816612143 15.43838250061342 11.92402827506449
78 26 0 9.578090957469309 5.194106711792978 9.349343068070633
79 26 1 13.256711878380942 3.7860672534751783 16.969208042519906
80 26 0 10.658419757089268 5.619946318422455 10.512159624986968
81 27 0 6.268231169545193 9.923996356115026 15.508373809855959
82 27 1 6.5745069405911565 9.511487941056895 16.615555868977435
83 27 0 7.412059103974675 8.838151192081224 16.695210066829684
84 28 0 7.83431230367943 8.873448950852998 15.519641470751711
85 28 1 9.792322610788723 7.308015016367042 16.838415964260715
86 28 0 10.105049493380056 7.215698511044241 15.446292220183572
87 29 0 13.947135728048067 4.929450906598991 6.282234606819969
88 29 1 17.32877721353543 1.6203507836910438 4.50437828209527
89 29 0 9.58827597895948 0.814434616253613 7.895748484381405
90 30 0 17.52561308073653 9.74582907918803 12.465939765656652
91 30 1 17.913740764355136 6.294435987549789 16.56322771973495
92 30 0 13.13714703606865 9.673601587383041 13.070525186860731
93 31 0 12.976988967496439 1.430149519038491 8.660361976396397
94 31 1 11.882609913460668 1.221860974405696 7.7251043680540015
95 31 0 12.44983603821268 2.046320163355057 8.621421891658077
96 32 0 11.735820573863728 13.315492920627008 5.231889338242264
97 32 1 15.409242714732773 10.305281848862633 5.7371017861056695
98 32 0 11.965823441845217 14.046274389274709 4.747648830538009
