ITEM: TIMESTEP
97
ITEM: NUMBER OF ATOMS
99
ITEM: BOX BOUNDS pp pp pp
0 20.0
0 20.0
0 20.0
ITEM: ATOMS id mol type x y z
0 0 0 5.981619857768969 10.133514423223007 13.75977791058376
1 0 1 4.397999420312483 9.404034431858515 13.903313046692482
2 0 0 5.833961961835463 9.135225734238222 12.786066703893354
3 1 0 10.347119062006229 17.499250429412292 3.7298086511417132
4 1 1 10.471158500476932 16.810963105179408 3.0145159369128374
5 1 0 7.8401588235954325 11.347665958853817 6.250381373399387
6 2 0 6.817840921582094 3.2821007437484546 15.265833222355365
7 2 1 6.058436325274695 2.2840450301937882 14.832243156997622
8 2 0 5.772394432596432 3.031376331821699 13.851846745912185
9 3 0 3.7163926593888665 16.238566174945746 9.34774622426725
10 3 1 3.566727992543391 16.14807754133766 8.229895735638607
11 3 0 4.8726398131640565 16.07869633418517 8.772542189256722
12 4 0 10.68239948596602 6.172368724839052 7.041718829193385
13 4 1 7.919817499795611 6.487061099050775 2.5322967892025465
14 4 0 10.839914401653855 5.918452567940595 6.144186042160818
15 5 0 6.940743893983177 15.065011539163459 15.647448396292077
16 5 1 6.476274432835862 16.775435613372377 16.963917511317863
17 5 0 6.7146227100760365 15.776726849801245 15.416194212782477
18 6 0 2.351037873631003 12.304833381386418 15.088145301661797
19 6 1 1.8229266799421247 12.902307426809609 15.873528389126445
20 6 0 1.6777963545204448 11.812377474005883 15.940249464359612
21 7 0 13.54382152802634 6.020192145592384 14.101529964869037
22 7 1 12.194052367438807 4.6041696968294525 14.586208276520274
23 7 0 11.227063537095937 5.063094815057598 14.122572761790273
24 8 0 2.5934552343752078 4.618765615388474 5.027943253683407
25 8 1 2.054857785241097 5.77453451634362 3.3759407629846345
26 8 0 2.623724835812961 4.997076219138036 3.5096580899758445
27 9 0 7.343291157119402 8.837834738898652 8.01654457653229
28 9 1 3.865614123059976 18.265593339796013 2.0349844945606366
29 9 0 7.804686497365501 8.93434962594289 7.786140759189935
30 10 0 16.185108530671567 8.593205892866392 14.67673190309405
31 10 1 17.957408710714432 12.701495802982 15.987232542278655
32 10 0 14.734495475318178 8.394111534575028 15.752682808706666
33 11 0 6.877455576293898 12.898565131143904 18.003836848237537
34 11 1 4.984871272616212 14.708045073912668 19.05826668401711
35 11 0 7.758459426428985 12.512808304891271 17.58266192079824
36 12 0 6.136781031711024 8.291924989873998 13.94253526662377
37 12 1 2.759382511369907 3.1202437638670224 12.412737202216936
38 12 0 5.9897885687273975 8.021364693592384 13.985265809828922
39 13 0 9.246090770497874 18.300863839403675 10.886588817559947
40 13 1 7.1116112137689615 19.245919174258567 13.855822755742777
41 13 0 8.667767814349148 16.740754587582423 11.93826848467797
42 14 0 16.961964064836355 16.31038406231764 12.471491358981373
43 14 1 17.893664024535116 17.172361316817472 11.96700126024317
44 14 0 16.815306919750466 16.481994697143858 11.702197367031225
45 15 0 12.697640190252443 9.297943636504863 16.797692155427836
46 15 1 12.726205378684366 8.773842078331711 17.704421657728393
47 15 0 11.694395128834405 8.685962835152516 17.850847346640887
48 16 0 15.784025927971324 13.806354761446135 18.208718189510638
49 16 1 17.003259295964305 13.49878523559286 18.362405992562486
50 16 0 16.461007632997152 12.545056746121912 17.52376138063912
51 17 0 7.637160192109889 6.461174838255593 4.70917429728633
52 17 1 4.025704292886221 5.785726464708734 4.872624171399626
53 17 0 7.278150111076965 6.916231519968824 4.369906308068919
54 18 0 16.78220931112096 2.3530642109368975 8.730374825077282
55 18 1 16.86757849967914 1.2792995238151192 7.973664497709088
56 18 0 15.90939356551951 1.2778688630946418 8.165964198762422
57 19 0 17.216932166774217 3.9244126054442954 7.6530698329171445
58 19 1 18.99935790483802 3.6580446365478028 8.77911400419436
59 19 0 16.74556703355921 5.599778927701911 10.736789032851604
60 20 0 7.867761279165045 12.780753436476871 9.480866763184448
61 20 1 5.161020726503245 17.68475211959127 12.185584994752016
62 20 0 5.83241563914105 17.35650883077732 12.795248646061486
63 21 0 13.83646936717657 5.659180823863448 11.271673253257426
64 21 1 13.632531192069317 7.090333400736288 11.46874256817363
65 21 0 13.216411043692249 7.391286830308754 12.554964696677178
66 22 0 13.444834867222525 1.614924958336186 4.4733650157933775
67 22 1 14.374848363055454 0.8403615882895659 4.505161389453755
68 22 0 13.371506949308538 0.664813087544193 5.223455213798366
69 23 0 17.759918596417645 5.236524307795468 14.035699912224146
70 23 1 18.49520586298457 4.469536123959351 13.593160152354937
71 23 0 17.425972830425565 3.95423149022346 13.656264661566928
72 24 0 0.9994931637304435 18.189750090009216 12.316969517593842
73 24 1 1.0896701099667203 18.41675170068 10.91180200798926
74 24 0 2.590128501429534 17.715317039436986 10.571852858815896
75 25 0 8.354333006782364 14.758175465005028 11.752442387029172
76 25 1 10.928567241789692 14.185326531663092 12.455810190690261
77 25 0 8.320416428622028 15.312782959946516 11.982902666943675
78 26 0 10.057269737673638 5.0100835037347276 10.342703978268325
79 26 1 13.205700094809165 3.8123763424431654 16.85497551685814
80 26 0 10.988889295412598 5.3878380280415445 11.33197369357028
81 27 0 6.280796287728298 9.909001231443277 15.541560515766053
82 27 1 6.574600349363005 9.511693223670015 16.613804774339297
83 27 0 7.399270854108924 8.849194900429382 16.68901966988918
84 28 0 8.022320951429252 8.722440251497456 15.651531935346492
85 28 1 9.78089504287697 7.317637370801336 16.825917991460784
86 28 0 10.09858903775278 7.213604822362215 15.51568447919044
87 29 0 14.347660587955374 4.535963096108315 6.071531254677023
88 29 1 17.24047709276534 1.6382571096264495 4.545183030438927
89 29 0 10.608392802358185 0.9229915253376318 7.455039919517722
90 30 0 17.572023077330375 9.330160398146687 12.959435958295382
91 30 1 17.873136592592736 6.347064492332523 16.504852828619548
92 30 0 13.74054721800445 9.2472588046131 13.511146575598172
93 31 0 12.931335519186224 1.3980681586516577 8.607923971892625
94 31 1 11.887549964312319 1.2246976181995093 7.730919268959758
95 31 0 12.405562415559984 2.0306389594885066 8.579426413174652
96 32 0 12.164441422118331 12.961208107812324 5.292549304416148
97 32 1 15.356627996604894 10.355298554697633 5.725992206138372
98 32 0 12.379052261398822 13.600301776436957 4.864724764420355
