ITEM: TIMESTEP
98
ITEM: NUMBER OF ATOMS
99
ITEM: BOX BOUNDS pp pp pp
0 20.0
0 20.0
0 20.0
ITEM: ATOMS id mol type x y z
0 0 0 5.943318807587684 10.119146163734333 13.766709265952958
1 0 1 4.402775112146781 9.40469466422495 13.901258707852634
2 0 0 5.7959825044191895 9.13890408594669 12.811968394746529
3 1 0 10.348251746972576 17.49924784382333 3.7270148969205597
4 1 1 10.463683500500146 16.79559056064839 3.0237986662703102
5 1 0 7.958630663537866 11.593632231756887 6.1046480425574146
6 2 0 6.80764188265467 3.2661143495978577 15.261888296421649
7 2 1 6.058967962859547 2.28577341818106 14.83179521986818
8 2 0 5.77412758677583 3.0196790403709413 13.862996325059544
9 3 0 3.7067766774668716 16.238722237065712 9.339980910957594
10 3 1 3.5685733204195866 16.14803261608868 8.23126022791374
11 3 0 4.852745420565056 16.079202625626742 8.758383804476493
12 4 0 10.563554692238446 6.1861854402591625 6.849088676378448
13 4 1 7.934781480463637 6.484751355786791 2.5537608474855054
14 4 0 10.719314113884122 5.94163730228883 5.993550310102465
15 5 0 6.927873390612808 15.113204481056021 15.689644085722408
16 5 1 6.47754624035389 16.77055230246079 16.95905358501736
17 5 0 6.707072662689918 15.806531250774666 15.45201382314657
18 6 0 2.3500089274726337 12.315900002186405 15.090849952898079
19 6 1 1.823222232246912 12.901096636107066 15.872978960526568
20 6 0 1.6740282010786718 11.820695941673941 15.946333583703245
21 7 0 13.507206802605952 5.981154900153987 14.115030305911375
22 7 1 12.196031258142762 4.606780558237189 14.585520651419479
23 7 0 11.235235222097275 5.057724070850294 14.127308937288069
24 8 0 2.576841667184392 4.653659110049611 4.983213669462722
25 8 1 2.056493070060846 5.772359619825919 3.3802207098392567
26 8 0 2.6266128631950174 4.997453639823217 3.4949414545233215
27 9 0 7.176283011036401 9.29019784285119 7.729585892908901
28 9 1 3.88785212229571 18.20934591487164 2.0701638767485138
29 9 0 7.615882278551142 9.381949460126224 7.510221225610696
30 10 0 16.259282288004854 8.763603787332851 14.730527024935313
31 10 1 17.94402440101488 12.679364229521314 15.983504371324816
32 10 0 14.872595053538301 8.57940619655727 15.763225923044832
33 11 0 6.810352344067434 12.958680760371449 18.040608316203873
34 11 1 4.995805865121571 14.69883804096882 19.052362029957116
35 11 0 7.65070101643347 12.600135999144843 17.640305093050966
36 12 0 5.98675373898059 8.06261396140102 13.874051363032425
37 12 1 2.7776337022444206 3.148073702946449 12.421300710905928
38 12 0 5.847603241323175 7.805492984682435 13.916678402744544
39 13 0 9.162969235105319 18.3388505360175 11.002056166108487
40 13 1 7.120493539289445 19.237626715899907 13.843961474512493
41 13 0 8.608142983140706 16.83499839161805 12.01197774480175
42 14 0 16.980558183247133 16.323909667023912 12.47157946127328
43 14 1 17.891561969728652 17.170707512188432 11.967336834226089
44 14 0 16.83034997200834 16.494942430812205 11.696730125560014
45 15 0 12.700106670031232 9.295716630676718 16.801563724521277
46 15 1 12.725749563463376 8.774031710932935 17.704095063416393
47 15 0 11.699166769018943 8.685185643940912 17.85223966493478
48 16 0 15.800043193822733 13.806420206871874 18.21364002238672
49 16 1 17.001602655072755 13.497855063786146 18.360988114958438
50 16 0 16.47339531252645 12.55830931815291 17.53684317261416
51 17 0 7.497957132488781 6.433762252884861 4.716380452695002
52 17 1 4.0413567136423785 5.789995985187375 4.87048295783514
53 17 0 7.15448985977019 6.874814263422942 4.387757261213801
54 18 0 16.78713427989066 2.3384466976918103 8.719318898708512
55 18 1 16.867274826829636 1.2805736779896817 7.974604861450636
56 18 0 15.909493425358068 1.2721992022241224 8.162044695495593
57 19 0 17.26869624994064 3.9158536992065858 7.684000320145797
58 19 1 18.99070994552713 3.663209314916626 8.78182501133095
59 19 0 16.832104834525826 5.525609022135497 10.662428402334418
60 20 0 7.747843830207242 12.99781049073443 9.600396630767554
61 20 1 5.16869729514733 17.670826471043917 12.177804447319476
62 20 0 5.83021459365022 17.362803047438806 12.800793592071287
63 21 0 13.83265286781135 5.684659546155104 11.275701431382592
64 21 1 13.63249813431425 7.088989667525072 11.469184102181892
65 21 0 13.220771432217989 7.387361322170452 12.543784320925319
66 22 0 13.458530049870719 1.610736600226622 4.468456832917555
67 22 1 14.373129474185271 0.8408854100226547 4.505831297508637
68 22 0 13.386515508235151 0.6609332398115275 5.217543160313179
69 23 0 17.770891182725485 5.234077037390468 14.032288370481805
70 23 1 18.493712483136406 4.469673114465223 13.593555747117371
71 23 0 17.438925370271967 3.9544721050800358 13.653362978734998
72 24 0 1.0002053853062305 18.194046867133142 12.292987013278413
73 24 1 1.0917428163178196 18.415485471923965 10.91286151795419
74 24 0 2.556144870542634 17.731330458667873 10.578901467794548
75 25 0 8.441271432529836 14.736117565225216 11.775008424624405
76 25 1 10.917409386454327 14.189021262119057 12.45329177626728
77 25 0 8.41202177508946 15.275715257955962 12.000622073050959
78 26 0 10.200091142799836 4.955340363514962 10.638648537762428
79 26 1 13.190439857358356 3.8202658275227077 16.82080541649822
80 26 0 11.087008786147164 5.318802938046278 11.575542691969192
81 27 0 6.2846763463159965 9.904423219016534 15.551471705900328
82 27 1 6.574610798365688 9.51176325367947 16.613302534176253
83 27 0 7.3954242584872665 8.852540480487123 16.68700310148347
84 28 0 8.078785097141377 8.677140455855575 15.69091326280715
85 28 1 9.777457289997333 7.320530680767399 16.822172517913675
86 28 0 10.096917498919673 7.212785711350098 15.536457527497816
87 29 0 14.465907953383889 4.41820515944789 6.009189833677776
88 29 1 17.214314472732013 1.6436030818539928 4.557365171013172
89 29 0 12.415394221690644 1.3703840460555334 7.950971654882179
90 30 0 17.585054706273553 9.2064775807174 13.10636848879619
91 30 1 17.861040775351917 6.3627320536547165 16.48747544357254
92 30 0 13.92109891814125 9.120272335231643 13.642289546440992
93 31 0 12.917907222911069 1.3875169289692264 8.591895370775887
94 31 1 11.7950291201414 1.1996378594624664 7.693443416809461
95 31 0 12.391391948836324 2.0266247053540782 8.566590046213992
96 32 0 12.291858025004682 12.85578465445258 5.310640522591429
97 32 1 15.34097019121167 10.370186443878099 5.722684235116292
98 32 0 12.502164859666907 13.467523194458025 4.899554686770522
