ITEM: TIMESTEP
99
ITEM: NUMBER OF ATOMS
99
ITEM: BOX BOUNDS pp pp pp
0 20.0
0 20.0
0 20.0
ITEM: ATOMS id mol type x y z
0 0 0 5.922806672260644 10.111561528261227 13.770538364422935
1 0 1 4.405334556745969 9.40504853844312 13.900156503037056
2 0 0 5.775595954071419 9.140764868644876 12.825751731430174
3 1 0 10.34883255120002 17.49910832712679 3.725500190355775
4 1 1 10.459680548754902 16.787363391703046 3.028772821741391
5 1 0 8.022100591179283 11.725409250763295 6.026575410784136
6 2 0 6.802197446539083 3.257512492904721 15.259831767230365
7 2 1 6.059254435040358 2.2867049065212823 14.831553467052256
8 2 0 5.775012252063366 3.013358777240354 13.86894131626593
9 3 0 3.701422380999911 16.238825550686016 9.335833139104437
10 3 1 3.5695705662373363 16.148008493080628 8.231999149028042
11 3 0 4.842151568006404 16.079454788043957 8.750657487026686
12 4 0 10.500031715676025 6.193574307382066 6.746146576681813
13 4 1 7.942775091601182 6.483517454309266 2.5652264800366744
14 4 0 10.654931864819055 5.954008499230558 5.913105734340635
15 5 0 6.921025979507109 15.138877963459178 15.712345609635358
16 5 1 6.478228019546201 16.76793631449986 16.956454341445188
17 5 0 6.70297863114564 15.822632390858749 15.47100877147035
18 6 0 2.3495126671546958 12.321977509565663 15.092242144427589
19 6 1 1.8233830700657818 12.90043640370856 15.872679670532301
20 6 0 1.671912382703285 11.825189715263969 15.949728736832428
21 7 0 13.487595130008081 5.960234474664671 14.12227169580394
22 7 1 12.197114653270578 4.608160394526729 14.585206618686787
23 7 0 11.239631281675782 5.054827364750753 14.12986236743768
24 8 0 2.567894457350588 4.672405718653052 4.9593533475358065
25 8 1 2.057379131152128 5.7711895604070556 3.38253075860471
26 8 0 2.6281865382798872 4.997698354399723 3.4867357384951747
27 9 0 7.087089228753559 9.531854776377026 7.5762815695597565
28 9 1 3.899731565110859 18.179298714141026 2.0889565930906624
29 9 0 7.515002315482404 9.621050187559025 7.36283743853569
30 10 0 16.298859592271047 8.85460228723715 14.75928662645934
31 10 1 17.936871891333382 12.667543393068804 15.98151803323412
32 10 0 14.9464321196266 8.678437884854796 15.76883837853549
33 11 0 6.774469925592713 12.990637860741783 18.06024248180897
34 11 1 5.0016504180555605 14.693922845611525 19.0492067795304
35 11 0 7.593121530256281 12.64689621791361 17.67112091899155
36 12 0 5.9066059515240745 7.940106707288837 13.837436437114315
37 12 1 2.7873832055440895 3.1629405570527633 12.425874930852673
38 12 0 5.771672916881237 7.690176514309491 13.880076419141822
39 13 0 9.11853558390202 18.359142224990208 11.06378097774394
40 13 1 7.125239520800456 19.23319531286259 13.83762164932968
41 13 0 8.57628951056204 16.8853575757016 12.05135283790668
42 14 0 16.990645580623827 16.33116114448133 12.47186541809639
43 14 1 17.890427507425624 17.16981480432307 11.967518393295764
44 14 0 16.838416553437312 16.501981175973228 11.693533985694577
45 15 0 12.964108536120477 9.544590096161459 16.670394565844454
46 15 1 12.726634721360208 8.776289105211186 17.701477129565266
47 15 0 11.701627312230872 8.685129744715786 17.85236452287477
48 16 0 15.808640519452641 13.806555304919037 18.21635078826474
49 16 1 17.000709163369095 13.497351477587728 18.360220025554696
50 16 0 16.480132599607078 12.565349394425196 17.543834974699035
51 17 0 7.423567878757756 6.419063434020459 4.72025811869008
52 17 1 4.049711984255383 5.792275557478795 4.869336107436751
53 17 0 7.088395027146851 6.852750521680169 4.397265947761999
54 18 0 16.78986019538148 2.330632381916315 8.713389809467316
55 18 1 16.866836623900166 1.2812693174600316 7.9750147934410665
56 18 0 15.90944726128497 1.2690955608138155 8.15949328904017
57 19 0 17.296364052922165 3.9112939550304096 7.700564729565363
58 19 1 18.98608351137754 3.6659748503849836 8.783275533442046
59 19 0 16.878423922991526 5.485887849295358 10.622581099874175
60 20 0 7.683598683238324 13.114090818282317 9.664422400817463
61 20 1 5.172812002333006 17.66336293673398 12.17363313178897
62 20 0 5.8290191582406035 17.366242477438103 12.803835712840957
63 21 0 13.830598263169076 5.698314267688952 11.277885932144422
64 21 1 13.63248068903118 7.088271895220872 11.46941915961671
65 21 0 13.22311344069371 7.385220226204423 12.537787695626633
66 22 0 13.465964213970826 1.6085935264099127 4.465696638187027
67 22 1 14.372202116514796 0.8411713437630767 4.506195826673786
68 22 0 13.394634809884522 0.6587017575309394 5.214447146859942
69 23 0 17.776877012410424 5.232856986578004 14.030467000423766
70 23 1 18.492900537757663 4.46974777964402 13.593776921961704
71 23 0 17.445918915044132 3.9544875038659644 13.651754698238198
72 24 0 1.000584228153272 18.196352428075297 12.280127230984254
73 24 1 1.0928536326892901 18.414806758023293 10.91342994412109
74 24 0 2.5379323282856254 17.739912829535513 10.582676822616872
75 25 0 8.487696139288413 14.72422095314092 11.787006920549613
76 25 1 10.911447112165433 14.190996422864098 12.451946339548712
77 25 0 8.461003864415998 15.25600402952475 12.010144426887154
78 26 0 10.276432199998638 4.9260975665723805 10.796814310825944
79 26 1 13.18226280495765 3.8244995944540476 16.80249659660085
80 26 0 11.139376048348076 5.28194089069803 11.705560950492984
81 27 0 6.286782943745561 9.901950278939191 15.556773902487032
82 27 1 6.574608907341223 9.51179606437723 16.61304384846494
83 27 0 7.393360331726287 8.854341861116977 16.68588395613095
84 28 0 8.109049527389782 8.652866306936431 15.712004343040038
85 28 1 9.775612217028202 7.322083329974486 16.820164767762854
86 28 0 10.09609178114527 7.212295418779629 15.547589075466957
87 29 0 14.528615939392372 4.355007796412328 5.976028976923079
88 29 1 17.200737497087385 1.6579622431853878 4.564934651828984
89 29 0 5.244286354810182 11.180208117125922 11.939780987555254
90 30 0 17.591849586360492 9.140407985500211 13.184875970630703
91 30 1 17.854807803530967 6.369689185263949 16.478252330166065
92 30 0 14.017770805203247 9.05240578496026 13.712354326801364
93 31 0 12.843060421016228 1.5577373655542637 8.699670299335095
94 31 1 17.24392147740447 4.289333286518867 16.18598769947199
95 31 0 12.328974008256383 2.1823257348685887 8.675111733607494
96 32 0 12.359884215132295 12.799460256434447 5.320321737697658
97 32 1 15.332605741806585 10.378140465474193 5.720916673840567
98 32 0 12.567972415902895 13.396585145529691 4.918152070721185
