ITEM: TIMESTEP
1013
ITEM: NUMBER OF ATOMS
99
ITEM: BOX BOUNDS pp pp pp
0 50.0
0 50.0
0 50.0
ITEM: ATOMS id mol type x y z
0 0 0 27.174984414105843 23.928554486492246 32.441819776200795
1 0 1 27.062723832761858 23.248024361038517 33.16000311891738
2 0 0 26.689588701003533 23.59298425584993 34.01236613934362
3 1 0 26.838612053511458 44.5162644403807 6.689219557444498
4 1 1 26.68186888071087 43.62114708796234 6.551111730976232
5 1 0 26.354803697630523 42.92283368100751 7.166392796260042
6 2 0 39.2871952079993 24.93703625797116 36.98376702991854
7 2 1 38.65678070789488 25.11460524505084 36.26924301700947
8 2 0 39.276312311580796 25.764749986458085 35.51137328810127
9 3 0 6.669824086097453 16.938861141420713 21.90557078312144
10 3 1 7.342749490967371 16.242477256665417 21.944854613346156
11 3 0 7.568328251273497 16.114722247798266 22.90492536066453
12 4 0 33.8020995777511 18.39520296467126 24.673140877039806
13 4 1 33.88288700561848 17.822278274811318 23.932903174126192
14 4 0 34.01282377356968 16.915957232240523 24.248907670751315
15 5 0 22.00812695663564 18.799171141241775 27.19096725151187
16 5 1 22.2413406935978 18.163344972391396 27.907494139362406
17 5 0 22.817844513081265 18.600812033851195 28.4999917851832
18 6 0 12.954443858137147 21.751543373603834 15.002681316718522
19 6 1 12.300466716918839 21.540132155636524 14.21876102408911
20 6 0 11.509817479486918 20.86027280345295 14.228071488532516
21 7 0 36.55161961165072 7.310822137494012 39.1602420227055
22 7 1 37.15366072780631 7.475799173214358 39.65480358917945
23 7 0 37.03660564043173 8.423828900895167 39.69488267412762
24 8 0 5.740653912829005 15.163387264734203 8.525470059535614
25 8 1 5.171730357241454 14.546158577601311 8.189624497788582
26 8 0 5.514978799149968 13.635467797209923 8.54274093320043
27 9 0 19.69073209409067 28.589010073978745 27.574764367472625
28 9 1 19.650196026993925 27.897829019482078 28.00639995223444
29 9 0 20.292640166918208 27.572241981335463 28.59492289069541
30 10 0 33.574289973035526 15.228106254724342 10.114709520822801
31 10 1 33.528053257231605 14.941336682808018 9.242919479188217
32 10 0 34.063372696375794 15.615831957565637 8.535343032846972
33 11 0 33.53442660258039 46.33508978270686 13.128766800139612
34 11 1 34.447691507409246 46.47444660450178 13.444876055769859
35 11 0 34.61376402496589 45.75418143992441 14.129656322943928
36 12 0 9.600536860430925 18.373137328139247 46.45295005720199
37 12 1 8.83596312107062 17.93171937786351 47.00262341700057
38 12 0 9.218616164437627 17.162436285332728 47.67743077910758
39 13 0 36.3225851092487 27.69197726842886 47.065368091734065
40 13 1 37.272401953366746 27.569597913238997 47.093906230399085
41 13 0 37.44051401891389 26.637381299592988 47.30952566785128
42 14 0 12.798557833994916 30.081716353042783 22.573255444168655
43 14 1 13.183676519555847 29.71144137109785 21.74415516529721
44 14 0 13.54713513646005 28.8375234554032 22.008866499268407
45 15 0 30.825647927738412 20.13475358793568 43.41637312558635
46 15 1 29.88373154366114 20.3052379261878 43.407425564898
47 15 0 29.59162218750938 20.431874977406927 44.310898811910484
48 16 0 42.09028489168035 36.577861548212205 44.83348997921688
49 16 1 41.88270257230685 36.45758983834575 45.75095761964004
50 16 0 42.57152395173886 36.35464121663197 46.45140340726034
51 17 0 37.99811702287204 26.05790015983705 23.47009439992587
52 17 1 38.42612356837805 26.69659506100538 22.88559299532672
53 17 0 37.75781813247734 27.236558455558672 22.489599255048013
54 18 0 42.84809444327807 3.9568804242557323 20.219265447694397
55 18 1 42.16944896648432 3.2207437309639912 20.1778299805843
56 18 0 41.32112567106907 3.523602962250736 20.643984550928366
57 19 0 38.45814029323068 11.631522474720274 16.569034183942495
58 19 1 39.31988154648934 11.864741581148259 16.872681108290255
59 19 0 39.661618023142054 12.602327246077493 16.296078809274963
60 20 0 16.292695363505626 46.751614019937946 23.937247291085576
61 20 1 16.92325064598932 47.487426149803234 23.809862778158017
62 20 0 17.025020842448047 47.94596423973848 24.661913538385463
63 21 0 6.952388231552272 40.80294782961846 40.83352959483342
64 21 1 6.080172863807665 41.13063491847829 41.28527498425635
65 21 0 6.0214515628472345 41.840414418733815 40.721813658270705
66 22 0 26.081526034129084 19.129052536750287 1.522732824405212
67 22 1 25.800714602339518 18.979449239708735 2.3460353688959477
68 22 0 25.466700332471127 18.12437829641862 1.923786203860626
69 23 0 45.73659502599522 11.971620033579406 34.36646657279328
70 23 1 46.14934066063725 11.18584660119585 33.94354611252011
71 23 0 45.61618007747661 10.359484016533445 33.833579288845726
72 24 0 44.02943669607789 30.92663778071531 17.880444443534415
73 24 1 43.223502848330035 31.234895151093134 18.446398999060097
74 24 0 42.82023021806536 32.21432074644565 18.10216810695699
75 25 0 46.45452310275331 35.82528411954525 11.96495823000415
76 25 1 45.46016068108588 35.93107604101115 11.868833965797242
77 25 0 45.067525324914 35.2402009303593 11.33278856709938
78 26 0 26.172556002198874 4.388704054751759 38.05897133807027
79 26 1 25.783581987533562 5.031962071502646 37.33551028616635
80 26 0 24.994380297373162 4.452982758081717 37.23229455777464
81 27 0 25.969176953007523 11.705907643495657 9.77168439127214
82 27 1 26.105161645989988 10.749327751445195 10.058362060967495
83 27 0 26.82347999019647 10.80564720551606 10.741340492018821
84 28 0 8.526997334682065 28.034362417314114 30.242948881645166
85 28 1 7.994997957909311 27.423299915206037 29.592631208022464
86 28 0 8.687722418128677 27.16430846551381 28.926261242827515
87 29 0 23.627642066742617 39.03495648757307 13.890659609830864
88 29 1 23.40291250872218 38.46007870198634 14.535936524814826
89 29 0 23.734667052452433 37.92174636966354 15.132098601265028
90 30 0 48.13282254215054 15.429674099129723 44.160686504868856
91 30 1 48.131289865475914 14.904004428063264 44.97357375491238
92 30 0 47.88279911892869 15.607320997764987 45.68557774693577
93 31 0 28.924127622487156 2.9292755880171075 17.18572093907443
94 31 1 28.99955740268206 3.5010279525035535 18.056403980521633
95 31 0 29.840849329801312 3.379145273041796 18.28389634771902
96 32 0 9.958143238125949 39.41781715447085 10.273891328804112
97 32 1 9.49400532580078 40.10009221835221 9.654454221288203
98 32 0 10.156738151575526 40.653026161313484 9.358327533135297
