ITEM: TIMESTEP
104
ITEM: NUMBER OF ATOMS
333
ITEM: BOX BOUNDS pp pp pp
0 50.0
0 50.0
0 50.0
ITEM: ATOMS id mol type x y z
0 0 0 27.09400146236772 24.166264774766358 32.49120663957372
1 0 1 26.959500467563544 23.182142661140595 33.042145862930575
2 0 0 26.66756282052991 24.237610643222915 33.93474649052763
3 1 0 26.28618200746103 43.657338728115306 7.953948080591145
4 1 1 26.616588642630436 43.50720532979756 6.784173901230874
5 1 0 25.87351609453409 41.99022455710819 7.913289618725661
6 2 0 39.65197904487169 24.739637621185892 36.76714453679285
7 2 1 38.400732922727734 24.399543198510433 37.34716875931278
8 2 0 37.036389769258186 24.65342974068398 36.207652855137546
9 3 0 27.761486673624177 4.724496641952582 37.94109377545502
10 3 1 28.729455811614386 3.2145213440595954 39.65340982812791
11 3 0 27.93001463404404 5.122414546538928 38.82765868281988
12 4 0 33.76097247848142 18.67999881569633 24.991236908294464
13 4 1 33.94713362331198 17.878340026140535 23.80350734328206
14 4 0 34.04271306551898 16.701742921896006 24.29227377476639
15 5 0 23.0823711290045 26.032273469559282 42.80793782879267
16 5 1 23.161056099419973 27.18765090859414 45.13859764311093
17 5 0 22.6462642636254 27.423364930628008 42.71756778129578
18 6 0 43.7320472912467 33.13637491313444 9.813247307790016
19 6 1 45.17468451201714 37.42109216774727 9.533854134636233
20 6 0 43.71090529319093 36.798891499828635 10.368025529292515
21 7 0 36.048791199211664 7.303197641475436 38.74687066211943
22 7 1 37.26341219717397 7.500579667840679 39.64401761825064
23 7 0 36.24590941541369 9.02181637082167 39.1733587682183
24 8 0 3.6380074461339342 16.270372504413988 11.857335684941674
25 8 1 3.607959526781654 15.249415373289038 9.833753097568856
26 8 0 4.444602888062163 14.282882709184056 9.735660000026439
27 9 0 8.425532609077054 33.91685791767904 30.228913129777936
28 9 1 35.16096523096793 13.619656713256411 5.8551363455549446
29 9 0 18.877644326947394 8.146299814584536 18.052214800724364
30 10 0 35.4777349185091 15.940162318559498 15.766074343483353
31 10 1 33.90324041028018 15.883617548571847 11.321572200151675
32 10 0 32.217195637227185 16.93802758025194 10.9138150163585
33 11 0 32.85558325521823 45.92072076745849 13.243229139568973
34 11 1 34.375728325107396 46.36810478656683 13.348372951453275
35 11 0 34.3315272326179 45.43321888797358 14.299000575780873
36 12 0 40.31862742406669 38.516852871605934 11.47697789500679
37 12 1 41.74904001633981 37.979586021302175 11.11641079295568
38 12 0 41.881723710647265 37.1087118634588 12.520158199171195
39 13 0 35.29459623328135 27.039481548069325 45.629354045779586
40 13 1 35.6693807989486 25.873184209349574 46.19286555010277
41 13 0 35.47683608466814 25.32188347963818 45.09747403496854
42 14 0 12.547779113167534 28.533748606553218 23.11491444717409
43 14 1 13.384023818011247 29.23499413079277 22.418753149527653
44 14 0 13.104206381562088 28.11252651957636 22.709818548518562
45 15 0 28.27902569467456 21.743299105609463 42.29775208173224
46 15 1 30.503453256921297 21.814002770863713 43.61504244927746
47 15 0 29.75243269441314 21.813766298708792 44.31523057465374
48 16 0 43.71141255600099 36.00355782462531 43.705993326809185
49 16 1 43.590102159351176 36.100187865037405 45.27496937497131
50 16 0 42.21752493383672 36.388262230929385 44.10778173265542
51 17 0 44.020200825330754 22.327811911867315 25.66129341374718
52 17 1 44.58550059287372 23.272551245093965 24.73947678363444
53 17 0 42.93637795941203 23.878991782388404 24.521324238361448
54 18 0 43.70307383310105 13.947693168590861 19.16605387022538
55 18 1 44.22971256727647 13.801337345174721 17.618319633972554
56 18 0 43.67744929742184 12.301636952657233 18.08878380893275
57 19 0 36.489536597738514 12.18178600777426 14.999673933094144
58 19 1 38.055264495865565 12.411475784287047 15.553890935288395
59 19 0 38.70746486097375 13.602002898270342 14.926438876581026
60 20 0 12.279512338058877 44.106618785412735 30.720430372729247
61 20 1 12.89216818422947 45.187460392113145 30.93919222778599
62 20 0 14.554449568453741 45.13798939775686 31.2907201147431
63 21 0 10.49774369662571 42.93508869997158 33.10488599638491
64 21 1 10.439329432088437 43.849431409325604 34.23532149345218
65 21 0 11.07258082656181 42.562134967012646 33.49886661624832
66 22 0 29.496570145013088 18.64744269098866 9.731358091162463
67 22 1 30.672379521575653 18.308538999765435 9.14357161082421
68 22 0 29.806778938314306 17.623131305262625 10.482928049899712
69 23 0 45.171048489696304 12.092743648675004 34.574887631054956
70 23 1 46.13854865405252 11.170602686629893 34.03202416202415
71 23 0 44.737207744355615 10.55531173140665 34.132454021993915
72 24 0 36.88172177779545 30.61375124936409 40.65957220004375
73 24 1 37.817729766597104 31.474609966354425 40.880402784847206
74 24 0 36.46912857303927 31.70013024852786 38.86786933477893
75 25 0 46.32768647378747 35.487231563929605 11.700489714298937
76 25 1 45.376105521945895 35.878274681166246 11.998260248986293
77 25 0 43.85886219251362 35.436652879504166 11.525866479663794
78 26 0 23.25549705789216 13.812781533144733 27.975037483298166
79 26 1 24.303087017355615 13.193506032662 28.63931824871392
80 26 0 25.549631085427915 12.749278494441434 28.44448129554271
81 27 0 25.217691499166758 12.222259731438363 11.064697148206717
82 27 1 25.94110276808649 10.96962153450315 11.167433784504112
83 27 0 24.779819694951314 10.927292315159722 13.55912062123708
84 28 0 10.849606301371127 24.55572226897496 25.350778370482946
85 28 1 9.14722309337308 26.083659593778854 27.334604638941165
86 28 0 10.572492592140293 25.89572827241794 27.068717454505766
87 29 0 30.674664307943775 34.12498918153401 17.346362868124125
88 29 1 31.678593399886942 35.21725449796427 16.242420903138182
89 29 0 31.79137397124736 33.79975857047524 16.408342336981033
90 30 0 48.124113414910035 15.892381347768874 43.77278243710724
91 30 1 48.06845378440295 14.82243319561807 44.974119274550105
92 30 0 47.98122460766429 16.095352225372622 44.527488785225316
93 31 0 28.324385136919147 4.026663196596188 16.744514978711315
94 31 1 29.359121407475836 4.0840593730416 17.629020457190872
95 31 0 29.13108618195731 5.930360193549682 18.16424336286705
96 32 0 9.798344466586443 38.82281588766902 10.421560957012309
97 32 1 8.792691123986227 39.02226870833389 9.711776893375179
98 32 0 9.474431831294812 37.70976978041808 9.39023107819364
99 33 0 43.536088956344614 38.30508934542697 21.200441764764356
100 33 1 43.32657334533894 37.47479075224253 20.018160386321263
101 33 0 42.24937172857703 36.177064048136415 21.220497082203977
102 34 0 1.3905346101471392 33.58821428151598 11.326202568670972
103 34 1 1.0795362926379122 34.78038962386019 10.307238753469134
104 34 0 1.0798424368259614 33.54225080656607 11.197790878176267
105 35 0 35.01649146406386 23.907836357666902 39.61636975487937
106 35 1 35.760742449876524 23.499295235083174 40.96912758869425
107 35 0 34.924430688140156 22.99215263621224 39.31204153285962
108 36 0 36.07166337707787 45.03518338367591 45.24253447436763
109 36 1 36.92382129409326 46.433247448867746 45.88111552520843
110 36 0 36.04069637415812 45.90853400041818 44.07663283000952
111 37 0 16.901456605237865 22.10534416057227 30.512923456485044
112 37 1 15.112227799680372 20.488905690841452 29.418388684001414
113 37 0 14.688544326902296 20.07318908580085 28.052816046192202
114 38 0 10.66488999509435 31.223456767498966 22.32200709345121
115 38 1 10.61128396591802 29.99596103048664 19.928860144963778
116 38 0 10.1409930307025 31.65462143494968 19.993209312251555
117 39 0 24.257801693875894 31.945531647680394 15.744678442697758
118 39 1 25.477069773726505 32.29639658241258 14.833401003136315
119 39 0 22.693160738714493 32.15261320199772 12.961376629522821
120 40 0 21.663856581536265 43.21293708080407 24.43520181542962
121 40 1 22.870760923557746 42.8600405449452 24.34699443200504
122 40 0 23.561702038640497 41.79389749088194 25.291647464141164
123 41 0 33.933934400055946 26.48349230563123 10.190743204238094
124 41 1 32.23117188800638 29.374231682809526 11.39765579024568
125 41 0 33.17686720478693 26.427702404783567 11.105424552072268
126 42 0 23.513423237748462 45.94615862454217 30.935209439217793
127 42 1 23.728414219615402 47.05043821818388 30.228630204831827
128 42 0 24.893283655275226 47.10796552096808 30.810159791736687
129 43 0 7.160283670607953 20.860766022120202 17.573330380706352
130 43 1 6.219381978216449 20.529798772792034 16.132210132117706
131 43 0 7.467437642972836 19.737421754851482 17.124664152303772
132 44 0 9.849357454428022 21.106007961956966 42.125796983535295
133 44 1 9.493234044615331 21.38731992240787 43.84364741288957
134 44 0 9.197454656614232 22.79833817051407 44.102646779107594
135 45 0 29.44561125051758 4.623112933913583 2.431019459436464
136 45 1 30.021605609941314 4.032956029124758 1.568855528454282
137 45 0 29.854228767117473 5.530121892599091 1.5488623564318755
138 46 0 3.6217362702473817 8.871683053070349 28.16696562797895
139 46 1 3.3435086982967337 9.159214365906388 29.57294662459498
140 46 0 3.763574147151299 11.622854817147665 30.43224899748046
141 47 0 42.29408902764696 8.101150079271918 38.78770031582513
142 47 1 44.2805644226136 6.346771212482684 38.60686941961836
143 47 0 43.06608122343917 6.1568600577907375 38.224806825897765
144 48 0 4.590504661894781 18.53278177394793 5.0743763640238
145 48 1 4.2590391444562385 17.684685839379423 3.9309503567207043
146 48 0 5.753488557087663 17.743140705798194 4.505896998059756
147 49 0 16.249591102215103 21.57066960004563 37.85471547757149
148 49 1 15.395184167169905 20.709645842239567 39.18721782482704
149 49 0 16.646002421673963 21.707139335276235 39.663077912633774
150 50 0 8.556684333252896 46.79744162820099 12.806169318729717
151 50 1 8.093290735889951 45.938100719500184 13.269061538736878
152 50 0 9.616065776534812 45.05001463383986 14.252515551324489
153 51 0 20.602179597638017 34.330480236742005 12.746311774422866
154 51 1 19.155296123462705 35.152267689128124 12.57629889207298
155 51 0 16.338259247814644 38.52980856184001 19.260975452558828
156 52 0 46.57685917510699 29.840720510220123 41.089305584777186
157 52 1 46.84657658659585 30.93163051913043 41.96872485588944
158 52 0 46.91445521136828 31.877190578415114 41.3406103281702
159 53 0 8.298776682614873 17.37835975933615 9.968568427532668
160 53 1 6.874745614785335 16.107171377896726 9.613025290933358
161 53 0 7.353046107567328 15.322701811098533 10.672147492423012
162 54 0 16.07952117566665 32.09474754617316 31.436926260530306
163 54 1 15.731260178947975 31.152940426081706 30.366442143606445
164 54 0 15.408236657501506 27.06157574423096 30.734880540389792
165 55 0 11.652764373455522 26.40647632338262 17.659719771537667
166 55 1 11.177081950609152 27.4027077348228 17.82744275030028
167 55 0 11.805783555483108 27.159123370847485 18.96786164623404
168 56 0 6.346785468986444 15.59143291002569 24.07647403925221
169 56 1 5.867845552096778 14.212118697528691 23.324907235108856
170 56 0 5.650468726776317 14.097321042798965 24.4361534923431
171 57 0 14.73063918338024 15.66403083975186 34.271894460481406
172 57 1 14.176200786872112 14.140237402429372 34.31348028083613
173 57 0 15.093373766256665 15.26521052739473 33.22505962944556
174 58 0 14.029740012020698 28.78166896862671 44.14669486092306
175 58 1 13.753795836346159 28.93112130222994 46.42733678038696
176 58 0 12.236599654442784 28.265756097558018 44.54257062237669
177 59 0 17.576627805214915 14.473129555365187 30.624984269092565
178 59 1 13.959942826935105 10.45338578238064 29.69167897673241
179 59 0 14.297662835731021 10.780301415915595 30.69037940745964
180 60 0 25.736970299894267 45.471988919675304 5.873834369380999
181 60 1 26.716901745193734 45.208012638824 5.605804862830547
182 60 0 23.56164869417026 41.37304587824933 10.269868325384811
183 61 0 17.94611501797308 19.021822302673765 37.19550281281097
184 61 1 15.597632717204336 17.35864435030704 35.9532643976629
185 61 0 15.016570179790524 17.772740553308275 34.7303481993746
186 62 0 10.278649389299497 48.09382742133458 41.49518327577592
187 62 1 9.039845045551461 48.13043040696537 41.98006750129812
188 62 0 9.817197316675754 47.37874140231723 41.122563247677
189 63 0 44.78457419473999 7.515838844908521 12.631913437446448
190 63 1 44.56946728491391 6.410903653089581 11.21665384239374
191 63 0 43.55567683192078 7.83808423296721 11.135111567532148
192 64 0 37.137306163587645 13.115019169515287 30.411328176155003
193 64 1 41.13170726972226 10.510512030440934 31.38845744595786
194 64 0 40.74120223620999 9.402535924731199 31.94869644985223
195 65 0 5.536377620965757 40.80215653147008 33.40204872793991
196 65 1 5.415681503446518 42.216475161461595 34.56057032372319
197 65 0 6.3034389557545625 41.27659518484215 34.274212761894994
198 66 0 21.99285510811719 21.846484619555028 45.650208596377375
199 66 1 22.274255300674476 20.486895806714816 46.602575629312305
200 66 0 21.378588867926464 19.90777098906595 45.92771655005024
201 67 0 16.73831318019132 4.967740920615008 12.149778110967917
202 67 1 17.448432865507318 3.081631214831331 10.344891832921807
203 67 0 17.35016537669771 4.8234825116465965 11.970867179883832
204 68 0 24.352151107706472 35.80636019346686 42.80551262286855
205 68 1 25.001998351228455 38.76680857722948 47.62747645936045
206 68 0 23.4500135444398 37.18219257411934 43.0637138578396
207 69 0 46.127057426640164 41.76487385585922 37.33932986286113
208 69 1 46.13988456482091 42.77599419835697 36.757160022886026
209 69 0 41.981845406172845 43.54027501337427 36.284597347035096
210 70 0 23.00309130534504 35.14271280138649 45.4730838432715
211 70 1 23.969221438908054 35.79763871965028 46.135382230549304
212 70 0 23.32835009109603 34.49439976718403 45.49350971065516
213 71 0 46.35707955667639 22.87858832250456 22.12583875235065
214 71 1 46.516154996400296 21.96813581775682 20.93656503585241
215 71 0 44.92969382871924 22.349041557666844 21.267440683765315
216 72 0 31.2710871173394 11.012114389242361 11.098868868061917
217 72 1 30.52219185171686 11.216075525154555 10.105107709252131
218 72 0 31.291781904572733 10.524874988702717 10.811198692378891
219 73 0 19.42133692242921 40.02364001093544 10.505517462312516
220 73 1 19.95382422904577 40.58533311836919 8.946997831370854
221 73 0 19.686516681496887 39.37556291445409 9.270185734447116
222 74 0 23.653631704181592 31.837850676990712 8.836589953829783
223 74 1 23.172618835869564 32.342328908240916 7.561595496544727
224 74 0 24.77647946879539 30.388026424963474 5.890804833274848
225 75 0 8.511395978688226 17.67222139458673 19.182638662143788
226 75 1 7.605850398866311 19.442708598299106 20.961409390665434
227 75 0 7.873517915665415 18.64967683055258 22.08932933830257
228 76 0 34.155654955999246 16.159942533733147 31.560765273563472
229 76 1 35.398999749095765 12.49552944029747 34.08939978876974
230 76 0 35.27212405190849 15.407429139829754 31.220290938132372
231 77 0 12.048394528536852 4.5325457847005906 24.44693915428972
232 77 1 11.846991792607735 3.2420046305136183 24.70910041076389
233 77 0 13.204423552555744 3.7625563087646294 24.125925222880824
234 78 0 5.708964786111764 11.838461334419819 5.298900555681314
235 78 1 5.963289295640394 12.82995281983801 4.6587368011203045
236 78 0 5.802869988675553 14.363452837467376 4.804386495192287
237 79 0 10.520163857872026 13.20615019325619 22.499132615147154
238 79 1 9.752899129456337 11.919217023661979 22.629151324642898
239 79 0 10.612642440061217 12.005046619185897 23.650349404508955
240 80 0 43.66242697605593 23.42766823684664 39.735835463822184
241 80 1 43.85880559975585 22.671025214104954 41.31273930172483
242 80 0 43.42312318816591 23.98267547600631 41.465365060805524
243 81 0 18.69818307034022 14.983402797182503 24.0264814362154
244 81 1 18.49508892447713 14.150085275638013 24.749442431181116
245 81 0 17.489069413041502 15.374158948067494 24.99070825857421
246 82 0 42.186181987338436 1.3459421188345244 9.215290657720226
247 82 1 43.33991959352854 1.2765631862772284 9.676220857144262
248 82 0 39.669331364437426 2.1226607889463702 9.105967371540883
249 83 0 20.070912171074927 26.938498537042946 37.95601289717726
250 83 1 20.715953247665475 25.811680858562333 36.46574568312664
251 83 0 24.376954848201418 28.33497098679314 32.517554131591496
252 84 0 19.952119546007324 35.9893972028403 15.226662234679749
253 84 1 22.45058627234235 35.58881184191705 9.924452346683902
254 84 0 20.137989395396435 36.498371686941745 16.31345628934832
255 85 0 45.627765754519174 39.08010620158461 30.884128210014993
256 85 1 44.90529199432278 38.04126415518078 31.50675034957954
257 85 0 43.85390136329653 36.981126943154024 30.648062280615843
258 86 0 25.967810751784896 35.78221277213993 40.321189945520466
259 86 1 24.909592939804416 36.679485900430336 41.15755081206396
260 86 0 23.72699467189719 35.94318304095872 41.34107657186355
261 87 0 32.0174718562023 17.414117958315117 8.38592647131374
262 87 1 46.50386900740414 46.94714590603985 31.955728534074
263 87 0 19.279626073569357 11.807847092930755 21.245737119293608
264 88 0 41.43234871662539 24.02534143304026 14.307666201889838
265 88 1 43.205228000418636 20.720483128597582 13.505459400189396
266 88 0 42.0401335194136 20.3206231626929 12.71529657399596
267 89 0 39.93987263148007 33.65549315242096 44.49124623764701
268 89 1 39.4157304770427 34.768279489757774 45.64367894693065
269 89 0 38.16147682818333 35.47509437936078 45.42405538810587
270 90 0 24.07799465309784 22.24311833409257 32.90519006042718
271 90 1 40.678422192372985 11.077234607814425 12.619304500460743
272 90 0 38.75949141408712 8.96914772631412 12.809244534673246
273 91 0 17.99220576772735 7.2285346888675495 8.094785531328453
274 91 1 17.82635393100952 6.133506364551374 8.78341848900971
275 91 0 19.770477586814764 6.377362562976712 9.376603578030853
276 92 0 12.429564446651264 31.35403588571844 31.23612474259651
277 92 1 10.618946801227198 33.09954171860285 31.89068287340471
278 92 0 11.81662377976701 32.963770688748816 32.58269551759563
279 93 0 19.940223876180646 9.916713789257683 10.134669065817098
280 93 1 20.996016316617403 9.776429858839366 9.071078146242932
281 93 0 21.945533575454004 10.325207880406357 10.364136458448487
282 94 0 27.017107485609127 41.98566891700318 37.63376935581493
283 94 1 25.473084258379735 42.70450494976499 37.03522897285629
284 94 0 24.015986986829283 42.40753425502628 37.436879423982845
285 95 0 11.65677330707617 16.73253236109119 43.20228300938667
286 95 1 10.64402967396681 17.26308110150986 44.03840929579953
287 95 0 11.984919917257306 17.25351087437179 43.0328877168989
288 96 0 16.08600082981179 42.30186813809397 22.7176851553736
289 96 1 15.383728411686606 40.69111997364843 23.19830558955044
290 96 0 14.747076778530408 39.80502542515631 9.690576833198232
291 97 0 30.57976403174094 3.616202824117959 7.263838068271309
292 97 1 31.429154031009062 2.9584788528161687 5.915381649038301
293 97 0 31.5586954748667 4.520616713506636 6.835056704639354
294 98 0 18.448123840181996 38.82413728822497 36.542118661277335
295 98 1 17.286525912762883 38.809860357422835 36.17991839475318
296 98 0 16.55340008576128 39.14109605266286 35.145270278931164
297 99 0 42.218223823160024 9.822358292045593 45.72119478141546
298 99 1 43.71466882926925 8.34376153318206 46.556730651355736
299 99 0 42.898947496800695 9.996802720766716 44.88397592074375
300 100 0 6.515115409715267 40.17953153049964 41.03539639604497
301 100 1 5.162549182421092 40.923419370445 42.02460682288602
302 100 0 4.938522572882843 40.000401096253384 40.74977802639602
303 101 0 45.099989554931554 32.346320560858885 32.31567275627897
304 101 1 48.0209852090824 38.95954132015593 42.306642980059486
305 101 0 46.53973776182119 32.10029360747211 33.695455462767335
306 102 0 27.37113849716609 23.950407440055134 43.24121953612395
307 102 1 26.593710090551674 24.69813738478813 43.95793353131643
308 102 0 26.589831072271807 25.9159257032653 43.50762731373465
309 103 0 39.38516961663539 6.422840698521929 17.081998220443026
310 103 1 40.66144288289957 5.227347363996483 17.47470856741675
311 103 0 39.356961679869876 5.721276762952594 18.28733751318805
312 104 0 9.734140712607738 9.813073166885964 3.855315846538088
313 104 1 47.56496911492567 13.106014675394452 9.694904005037046
314 104 0 49.173032545216465 23.494428234252275 26.91289272436108
315 105 0 34.608763032502644 38.78630566021497 11.700344957430099
316 105 1 35.94844245943503 38.75559526922109 11.388757350198492
317 105 0 36.65913977410147 37.34415324783723 11.503718823314747
318 106 0 22.183685630961566 37.098848014661314 39.11215046428691
319 106 1 23.598265819843274 39.41467514606571 40.496952255030315
320 106 0 23.314361218918197 39.560080646698204 39.104285005501104
321 107 0 26.05974971635476 34.75881866456552 6.821690943802788
322 107 1 26.39562138601894 35.96797847294712 6.2728028684641055
323 107 0 27.663093465597044 36.168562426240705 6.369190289496713
324 108 0 15.119183183061795 24.790657487075542 18.69059063639839
325 108 1 23.432101141526715 14.24983974250461 32.743162525684895
326 108 0 13.555269769718487 25.078556255287648 18.820513786172636
327 109 0 44.64270832594562 25.841338866290165 40.988730790572326
328 109 1 44.72724213833371 24.909943345769108 41.808289143010654
329 109 0 43.652407906378535 24.580415539273996 40.886763060488306
330 110 0 21.64603816376407 34.7011525872497 4.060110152000917
331 110 1 22.746060344627367 35.710968038687966 3.6960018038901667
332 110 0 23.10363918928818 36.76200430412141 4.297240016470981
