ITEM: TIMESTEP
1072
ITEM: NUMBER OF ATOMS
99
ITEM: BOX BOUNDS pp pp pp
0 50.0
0 50.0
0 50.0
ITEM: ATOMS id mol type x y z
0 0 0 27.122931304485462 23.9707736531156 32.5906957515042
1 0 1 27.082232932206328 23.24844745982605 33.175023324182085
2 0 0 26.709637911706427 23.631077783731566 33.94027827776744
3 1 0 26.763427302032326 44.52063865656559 6.953946144386699
4 1 1 26.672460310367097 43.600705983917784 6.4988596995471015
5 1 0 26.34817868436043 43.289046171656416 7.363378711757835
6 2 0 38.51533985495171 24.624430253805443 37.040092943728354
7 2 1 38.71891675183551 25.157711953972786 36.2055925554094
8 2 0 39.40132053757726 25.469611624784214 36.08490882459581
9 3 0 6.096486287996299 16.659625336272406 21.61062609212179
10 3 1 6.863441565010101 16.074431380099938 21.764689502966252
11 3 0 7.041173419957334 15.9537903331478 22.68941910367365
12 4 0 33.792013852537835 18.448399845249213 24.70494654694973
13 4 1 33.874984141945006 17.809943806860833 23.941976806595473
14 4 0 34.010437641313274 16.912911159821032 24.27790408141174
15 5 0 22.21736986167452 18.692800003934238 27.55701253543186
16 5 1 22.690424643616275 18.002113461623154 28.030683375797665
17 5 0 23.116789363369044 18.369661446140267 28.876066426040104
18 6 0 12.685280998222563 21.514574193883725 15.018484651015001
19 6 1 12.308719433168877 21.55676600711605 14.167948644813112
20 6 0 11.717922227126872 20.921009550163017 14.500726057650347
21 7 0 36.347573076328 7.18283943997545 38.97925915256002
22 7 1 37.15044797921776 7.479179308255339 39.66452560550339
23 7 0 37.23701807419067 8.370107718459545 39.8626850177962
24 8 0 5.579341728298759 15.463674937633579 8.373242346660643
25 8 1 5.166584012279225 14.507957047644576 8.187718437427206
26 8 0 5.629187732306137 13.830574082763762 8.600859305386685
27 9 0 18.794279332462143 27.834004597161933 28.4392506997534
28 9 1 19.850349972729695 28.169508907041987 28.110318792856486
29 9 0 19.59530563966633 28.871894714486604 27.48365577953885
30 10 0 33.18049884596598 14.904330224719452 10.062105271081037
31 10 1 33.51424512687785 15.058184988118052 9.040671961858076
32 10 0 33.99100747362972 15.77684209001435 9.058667607210296
33 11 0 33.57900044877522 46.456061288319745 13.054872286052266
34 11 1 34.46267946847874 46.48192532455455 13.462329784578978
35 11 0 34.60273157704411 45.7982801917797 14.090636834618142
36 12 0 9.668372347193351 18.019220333535824 46.78241945318202
37 12 1 8.849351591823819 17.94128026568365 46.99189270061145
38 12 0 8.924044743646098 17.35751409305786 47.53907685942697
39 13 0 36.44174799154386 27.83567014797632 47.17670049577442
40 13 1 37.41537856127459 27.715114245098178 47.1861526814703
41 13 0 37.66028200869208 26.834657333195853 47.50203784476317
42 14 0 12.78787246968598 30.299361302698912 22.38912816329128
43 14 1 13.16313579835459 29.763188435971458 21.68168017976169
44 14 0 13.575099146254738 28.8938945909558 21.790114970148817
45 15 0 30.62945322934418 19.80030853000995 43.3271503910296
46 15 1 29.72513419287284 20.16136153432422 43.35000501254014
47 15 0 29.40391862086454 20.225896484032337 44.2664878884997
48 16 0 41.502737010783335 36.59572380413534 44.85586946140659
49 16 1 41.90840044730576 36.4623843039944 45.81002230231776
50 16 0 42.86638132034777 36.4839428674005 45.500028310757514
51 17 0 37.926936132614784 25.934290336853408 23.591360002879718
52 17 1 38.429183599405526 26.553198095764643 23.018651518955764
53 17 0 37.799134637513454 27.169936951551126 22.542255826409523
54 18 0 42.897667270244035 3.762695490206583 20.118810897763016
55 18 1 42.169153175207285 3.2057656313148506 20.19289084125405
56 18 0 41.49663201871222 3.6254348823002407 20.630583896906334
57 19 0 38.53990899338712 11.449276212527353 16.81070427764333
58 19 1 39.465078110099995 11.825267032168853 17.00537102493767
59 19 0 39.684127782549226 12.520838838717982 16.381132517639067
60 20 0 16.511368764534794 47.12994839897173 23.29496683184754
61 20 1 17.300141743687952 47.674034502121565 23.249346886790015
62 20 0 17.23915524771893 48.4212933934618 23.85591526583115
63 21 0 5.112731995965621 41.649416586591 41.744867372881636
64 21 1 5.805065144893585 40.950205204124664 41.769626555339
65 21 0 5.786264800368041 40.11022544492117 42.51460962070689
66 22 0 24.91011986280452 19.09724840290459 2.107482938474937
67 22 1 25.800768426608176 18.93456509969481 2.316354831311906
68 22 0 26.530144655405465 19.092867308608476 1.5217746965979357
69 23 0 45.65571960409488 11.811495469439087 34.33361135210273
70 23 1 46.1670326557809 11.187806004375235 33.927858429916874
71 23 0 45.6217477568474 10.4780591263923 33.873772042555416
72 24 0 44.26935748232244 30.81037381148559 17.742483246285495
73 24 1 43.890358492458695 31.10533486072586 18.494067513359237
74 24 0 43.90133666989382 31.893062200257127 18.378320644258263
75 25 0 46.40436023056097 35.76193690483139 11.91150245172815
76 25 1 45.485614230623895 35.9507109766205 11.848796407728182
77 25 0 45.10234039204618 35.22172927038781 11.301783166993696
78 26 0 26.38588147018172 4.767637843642177 37.928829521306945
79 26 1 25.763991737925238 4.998101277260204 37.34944896869744
80 26 0 24.93163763827039 4.537346247332996 37.13168745295352
81 27 0 25.8992123762193 11.601007422038121 9.71445310021537
82 27 1 26.0160786124164 10.722566124910353 10.057333749117626
83 27 0 26.740098641348517 10.616368357289577 10.68924146519003
84 28 0 8.448575516522398 27.991011726261537 30.204459887903855
85 28 1 7.958745017710178 27.433215539132068 29.654188511295597
86 28 0 8.428264878892316 27.050115756589243 28.894771221904154
87 29 0 23.0513615883701 38.8776828714049 13.39026381840007
88 29 1 22.677679095026598 38.75025755814757 14.432116441728137
89 29 0 23.713143089709934 38.289363915380264 14.54156915838645
90 30 0 48.178611989926125 15.298100699225367 44.09728274845494
91 30 1 48.13377948127505 14.923614272660195 44.99075647405029
92 30 0 47.913852630141704 15.470522220075829 45.67120154851443
93 31 0 28.306518747274968 3.780371138238853 18.15652486871103
94 31 1 29.06345052530369 3.460274931703846 18.065417165075203
95 31 0 29.316793272092127 2.875179253147191 17.344435181666864
96 32 0 10.085739646974812 39.57741996019316 10.175666091989163
97 32 1 9.495850821510382 40.078359189174286 9.671321025423206
98 32 0 9.965216249903934 40.86460329584925 9.156690778054658
