ITEM: TIMESTEP
1080
ITEM: NUMBER OF ATOMS
99
ITEM: BOX BOUNDS pp pp pp
0 50.0
0 50.0
0 50.0
ITEM: ATOMS id mol type x y z
0 0 0 27.112755355649153 23.98203779031001 32.61424463183937
1 0 1 27.085221316539876 23.24778145423415 33.17722788425048
2 0 0 26.71163212374694 23.64414873501109 33.92639378872215
3 1 0 26.836222897482283 44.5914661674515 6.7609688456859205
4 1 1 26.667527021571235 43.60843530351239 6.513046837450376
5 1 0 26.323097433881543 43.100916473939215 7.277321546535281
6 2 0 38.524697849765516 24.644587081669485 37.007890737118956
7 2 1 38.721257777192356 25.1664377151625 36.18781015518611
8 2 0 39.40186322819869 25.321020394457783 36.34908058324502
9 3 0 6.022789758320396 16.62025982754564 21.65196941542544
10 3 1 6.803048840208214 16.04897641843242 21.735115008822117
11 3 0 6.906150031795271 15.980590674064773 22.6676796696367
12 4 0 33.79276543940108 18.442056998140785 24.714829621262687
13 4 1 33.87379454891156 17.808745836213653 23.942211245091553
14 4 0 34.0094998433517 16.917712765330734 24.29226171863335
15 5 0 22.252469455782343 18.676523510227582 27.61688182498612
16 5 1 22.750772553079575 17.980154119098746 28.04699140481289
17 5 0 23.14418909806673 18.34307873782557 28.91646143124254
18 6 0 12.76220985231454 21.609286214645977 14.946735674784575
19 6 1 12.307051314698766 21.550179762575496 14.176302705305355
20 6 0 11.67785916429887 20.943959402993315 14.367485074154493
21 7 0 36.32405192882681 7.198879667914173 38.96232618585364
22 7 1 37.149733758628614 7.477148833641601 39.66530586735742
23 7 0 37.2644804924086 8.36901117182831 39.886693635202256
24 8 0 5.570104701348205 15.473996438012167 8.365320549103435
25 8 1 5.164161196494095 14.503336439225777 8.186137469568473
26 8 0 5.659384939690426 13.878240832736134 8.616817398791984
27 9 0 18.66276689169568 28.26211352464574 28.296479946726606
28 9 1 19.82774649153858 28.180600404608956 28.11940813516902
29 9 0 20.304738761642803 28.922887852696743 27.671590980566698
30 10 0 33.134213216781 14.856771166278456 10.015940860347488
31 10 1 33.51330421568715 15.075467392468317 9.015175574195505
32 10 0 33.963458863221184 15.778429845457316 9.141308271217449
33 11 0 33.58043064049506 46.39973844456561 13.102079456547285
34 11 1 34.47054653810593 46.4888702073857 13.462682895031731
35 11 0 34.51286041859212 45.782143342310995 14.060663956196867
36 12 0 9.64260461451222 18.09804960612121 46.71128995318083
37 12 1 8.86156309360313 17.934742318962645 46.99623616500784
38 12 0 8.752705232785642 17.38248153118366 47.5433783362705
39 13 0 36.46110498576394 27.8003344064413 47.212423406052096
40 13 1 37.43791085830615 27.738251990042627 47.19703883275115
41 13 0 37.63182894181135 26.85660862968218 47.53177450393966
42 14 0 12.793251466411322 30.308169857644906 22.372506131716914
43 14 1 13.160514375213141 29.7710627551235 21.6714528019876
44 14 0 13.569163220776154 28.90818554889938 21.78002105983543
45 15 0 30.595897574036666 19.75552744810774 43.34248088672176
46 15 1 29.702749192293375 20.142735641073678 43.34039684926013
47 15 0 29.403768900604646 20.187300213863807 44.26497335954829
48 16 0 41.220825149836294 36.58036818426027 45.0229667638713
49 16 1 41.92405220342561 36.46596370848524 45.794529000447
50 16 0 42.9145006682771 36.473546094139635 45.58286261549004
51 17 0 37.907922429309146 25.924957358586642 23.602235222727433
52 17 1 38.43052726912901 26.534060816952415 23.03640985941216
53 17 0 37.79704487196227 27.151742293391386 22.557806122583244
54 18 0 42.842207042493676 3.7985453939431624 20.155037103742135
55 18 1 42.1693017672272 3.195324349159721 20.191616461861045
56 18 0 41.58015549692914 3.7102137373459745 20.632414665281967
57 19 0 38.5571828477175 11.453205190728827 16.815746581784104
58 19 1 39.48636587501957 11.81883245906773 17.02562417021592
59 19 0 39.65238630690183 12.500830228904123 16.37966681755421
60 20 0 16.526864563120508 47.23012199764786 23.245841856592417
61 20 1 17.355022585169195 47.69804924875256 23.17205854969371
62 20 0 17.210945801549215 48.45128401735794 23.74697853550485
63 21 0 5.0064933048601015 41.353872232431705 42.16327857081187
64 21 1 5.738290286206931 40.94840714418115 41.84318797090069
65 21 0 6.093592396499879 39.92967154625403 42.319138351495994
66 22 0 24.95022482754348 18.537369459109538 2.437104040551236
67 22 1 25.828533898182837 18.919098517167182 2.2388108883940165
68 22 0 26.030845658026358 19.930323914919892 2.3925614207347583
69 23 0 45.60152872741031 11.758651980043112 34.33414418453536
70 23 1 46.17490370287733 11.188566253236356 33.923879368541776
71 23 0 45.57853375945478 10.517326308614614 33.90348416073071
72 24 0 44.333290338284236 30.898104134530524 17.71703012853132
73 24 1 43.975449828596815 31.082376760692302 18.508833425957146
74 24 0 44.08380510145668 31.836528365458843 18.28919225163233
75 25 0 46.41597820538316 35.81046535549671 11.944360803652652
76 25 1 45.49193872418062 35.948270061347564 11.84310633605099
77 25 0 45.043175983622945 35.24601287726407 11.301958051041337
78 26 0 26.178338190941655 4.562278796777412 37.94052912235807
79 26 1 25.767100710391844 5.023135442027383 37.333688058827796
80 26 0 25.067041789168403 4.33131417558568 37.37111161782421
81 27 0 25.958094097314486 11.60023315600202 9.760946052132645
82 27 1 25.99932142876438 10.712765553292991 10.054982545263165
83 27 0 26.734396784782792 10.675235022480642 10.66370493509436
84 28 0 8.486911666036594 27.96857904499985 30.15405132062108
85 28 1 7.94821271793037 27.43349740052229 29.663633709455535
86 28 0 8.433887207058563 27.067933354878267 28.918321620818443
87 29 0 22.53752944667296 39.02166456067459 13.287629882969437
88 29 1 22.61677688983189 38.78108411062748 14.394791858442504
89 29 0 23.567083895378683 38.301202399796 14.873885683445383
90 30 0 48.15564326940907 15.369946446137163 44.152157575009085
91 30 1 48.1362511802762 14.915323285711372 44.99526858640114
92 30 0 47.913285509415815 15.537563401312628 45.571203871759955
93 31 0 28.323893094658654 3.7793991883040507 18.16918066091805
94 31 1 29.07378255983772 3.4553043373304155 18.068287163199365
95 31 0 29.117791187458312 2.913915752188224 17.30989432478984
96 32 0 10.120929221190416 39.61794915460817 10.151291747365352
97 32 1 9.493915680480924 40.07557436256784 9.67304583689477
98 32 0 9.956096329322 40.87186407337664 9.149263547247283
