ITEM: TIMESTEP
1144
ITEM: NUMBER OF ATOMS
99
ITEM: BOX BOUNDS pp pp pp
0 50.0
0 50.0
0 50.0
ITEM: ATOMS id mol type x y z
0 0 0 27.116925109389513 23.98980750131056 32.63254494112605
1 0 1 27.10590346371518 23.258435359074856 33.198755326995716
2 0 0 26.716588836826187 23.597315170184448 33.9509050534591
3 1 0 26.893926202788865 44.58867640514973 6.565412614429016
4 1 1 26.652129661066567 43.6167943502094 6.4969387527866225
5 1 0 26.25848494582134 43.02586444257075 7.292638079446856
6 2 0 37.954368021041624 25.013461471894107 35.94276507801094
7 2 1 38.82348717676235 25.18239940071825 36.19700085447223
8 2 0 38.72742314384659 24.789086864955856 36.83742742648412
9 3 0 5.432848851886085 16.29016240188574 21.392932192671275
10 3 1 6.2820227017331565 15.8663872138645 21.534001064892568
11 3 0 6.303244101203312 15.822521399928366 22.474491586325875
12 4 0 33.791925550124716 18.43143451357838 24.724657788548306
13 4 1 33.86389430419774 17.79899946336283 23.95479789407394
14 4 0 34.007735048073926 16.907122049020813 24.3109040016764
15 5 0 22.5041453508319 18.385394375335824 27.93058902418124
16 5 1 23.23870620893161 17.821798821580703 28.192045041623327
17 5 0 23.397419255995477 17.940958356651638 29.189213004638212
18 6 0 12.778304747749617 21.675128231585706 14.810154618369522
19 6 1 12.309699340147008 21.547984203765612 14.15504246595287
20 6 0 11.707533330018743 21.014516270329235 14.257567243948037
21 7 0 36.26075009513085 7.5478292060267 38.9593897925799
22 7 1 37.13198543968447 7.45314009122785 39.661282586399565
23 7 0 37.55015924658105 8.258088569181185 40.116797037931285
24 8 0 5.386121487068249 15.509065247184116 8.228168707708862
25 8 1 5.159115931891773 14.484366313752275 8.18152149067878
26 8 0 5.77574230021753 14.013757851809373 8.68282685731738
27 9 0 19.838206304493227 27.736768275930398 28.76957207330614
28 9 1 19.943388001325445 28.547885218718825 28.19659772701528
29 9 0 19.038683812208415 28.90532878487112 27.516204563863912
30 10 0 32.87229933778893 14.531761132960126 9.366955016992383
31 10 1 33.499482474181704 15.21756964279066 8.844647883904205
32 10 0 33.75212245065328 15.714017157191696 9.499248920524192
33 11 0 33.63377437396611 46.47546018223596 13.0689850923153
34 11 1 34.491556628202574 46.50482716054145 13.478171934119258
35 11 0 34.433676327355386 45.7687817922757 14.036607318444847
36 12 0 9.661054447121485 18.063042705123017 46.74327111664189
37 12 1 8.861646443682945 17.934978232239555 46.99671419649255
38 12 0 8.718550049977146 17.406924539830506 47.52593996011218
39 13 0 36.620037922839934 27.91158354547295 47.355643184464526
40 13 1 37.59322057405486 27.89786348386975 47.297068067399394
41 13 0 37.83263136076325 27.07670304073512 47.74122173087517
42 14 0 12.876399529309737 30.291825553650988 22.312441578377037
43 14 1 13.136944054676029 29.83950610239096 21.575614804369973
44 14 0 13.512065335669524 29.050018527010433 21.810246793758367
45 15 0 30.319746282346106 19.412334276904556 43.24807460507373
46 15 1 29.533581760933647 19.98495991185297 43.280308725688805
47 15 0 29.205674310248746 19.95775536470402 44.19591989325979
48 16 0 40.98986425395513 36.47510011728622 45.93569330320193
49 16 1 41.97839996847583 36.482362755845834 45.78060316911049
50 16 0 42.41779937827268 36.586058155729155 44.908279258683734
51 17 0 37.843594318452325 25.80467531784291 23.72147784859146
52 17 1 38.43029645553419 26.380556163165764 23.180503769627418
53 17 0 37.854822647269316 27.020882756332416 22.663485184855233
54 18 0 42.893214461860076 3.6550726381359326 20.07621663678921
55 18 1 42.17433231967603 3.1732232033096204 20.20526744286172
56 18 0 41.70356437799829 3.813051154064771 20.641741125224538
57 19 0 38.73233894015209 11.331518988639058 17.049234124344075
58 19 1 39.63847973122506 11.771547672454867 17.170884768668063
59 19 0 39.695009489174446 12.423026241293673 16.47250350733852
60 20 0 16.866027790479627 47.588898422732484 22.425893492618233
61 20 1 17.749095518566932 47.91196647030126 22.582576704366463
62 20 0 17.579772375043444 48.84181991288774 22.696672236668945
63 21 0 5.768007060248403 40.818991508244885 41.87524837261755
64 21 1 5.346585938057735 40.641034242632244 42.544495644098525
65 21 0 4.569384876369154 41.29090871729843 42.73336341237432
66 22 0 25.666314481606616 19.85189829277033 1.6768489180648778
67 22 1 25.800708200471387 18.887757624270183 2.226282943724531
68 22 0 25.633311489202935 19.36867396765376 3.0164024103851927
69 23 0 45.57387502596863 11.763656874465429 34.34225192335759
70 23 1 46.1894671406823 11.191368064548339 33.90800878752633
71 23 0 45.61053300817619 10.455632564768516 33.87169386234016
72 24 0 44.7186282473841 30.62188613820434 17.768796786459824
73 24 1 44.697407461414876 30.94225428487819 18.563656823957253
74 24 0 45.1956429846167 31.624885298611655 18.36050022926063
75 25 0 46.44506147087877 35.80348662740165 11.938055063115145
76 25 1 45.517866880013926 35.965014313309695 11.81259198589887
77 25 0 45.041715084464805 35.2816626177263 11.294081728774174
78 26 0 26.335177122384327 4.641236169984089 37.99045767052167
79 26 1 25.7375956918304 5.0248477600402675 37.31562468738959
80 26 0 25.19568560288843 4.134090634438127 37.6015647967208
81 27 0 25.958625519495676 11.549764524949422 9.753531062318768
82 27 1 25.8934379996557 10.672195817293023 10.051280286284806
83 27 0 26.657565228465916 10.558575008204565 10.596991661110142
84 28 0 8.582718517269894 27.923728683733486 30.039841006017166
85 28 1 7.8956987766987865 27.441430498857798 29.733259747280115
86 28 0 8.155412922652804 26.98279745383125 28.939874173755058
87 29 0 21.193334659812432 38.86855470755349 13.36316445155048
88 29 1 21.904981247845598 39.0680508432769 14.235236856134621
89 29 0 23.05003279112274 39.11633951232814 14.380705862853484
90 30 0 48.19353223162885 15.247510698829513 44.13098582738337
91 30 1 48.14255574798436 14.91976575922248 45.01813757523329
92 30 0 47.907610954856004 15.640735413147874 45.45165006170201
93 31 0 28.65380854410935 3.9752026788238513 18.662878913575707
94 31 1 29.080253047053592 3.4066627879514915 18.042702904265592
95 31 0 28.54933413403496 3.149932683420335 17.42476952161083
96 32 0 10.263617694335741 39.74564941453847 10.080637349870955
97 32 1 9.495714567498636 40.06780304153168 9.679019582367818
98 32 0 9.742090006584617 40.895520476751535 9.088462980117853
