ITEM: TIMESTEP
1179
ITEM: NUMBER OF ATOMS
99
ITEM: BOX BOUNDS pp pp pp
0 50.0
0 50.0
0 50.0
ITEM: ATOMS id mol type x y z
0 0 0 27.10231966953728 24.052944244758354 32.64284102473669
1 0 1 27.12165194418214 23.257264681572074 33.20928309919594
2 0 0 26.68197524289134 23.64320290388958 34.005122892627114
3 1 0 26.82873505787284 44.502521977379345 6.7028244443957075
4 1 1 26.64276650517281 43.60367913683739 6.473632643527752
5 1 0 26.333329704672682 43.355803175728106 7.273613449395777
6 2 0 38.631206704491795 25.569647220855106 35.356530347601655
7 2 1 38.83480271049699 25.164639917005072 36.219985481212625
8 2 0 38.09128017469941 24.569478415977272 36.815285032928784
9 3 0 5.139066954899733 16.097227811431676 21.183394560981316
10 3 1 5.98578576297363 15.767676532783888 21.426193691323245
11 3 0 6.053445352368682 15.701249207828944 22.380289649259907
12 4 0 33.79483014847606 18.389180897180633 24.678224977350055
13 4 1 33.85807751268305 17.795056905538992 23.967011485221672
14 4 0 34.00486040806999 16.90684342019696 24.29112328312459
15 5 0 22.685275165056684 18.161672953098922 28.015958019532682
16 5 1 23.50360433331926 17.738786577734444 28.286381126984427
17 5 0 23.565857885816868 17.68025742485191 29.188775414259716
18 6 0 12.763105232487211 21.552427931380237 15.099000835304437
19 6 1 12.319125356736437 21.570046651630562 14.098633060518656
20 6 0 11.624915427727656 20.841396257333717 14.540271947364
21 7 0 36.45395998932746 7.706914248852573 39.1421856903725
22 7 1 37.11692569339012 7.441905361238361 39.655328235321264
23 7 0 37.56314538956103 8.194861401526792 40.12266166881211
24 8 0 5.29056452260189 15.348269166287697 8.177154156599691
25 8 1 5.1570243865470164 14.491451252900031 8.177348342059405
26 8 0 5.819551591120793 13.984729847085612 8.716322486124781
27 9 0 19.421552046768586 29.319534363366074 27.82848211997127
28 9 1 19.930135303985388 28.645146762802238 28.247651626613653
29 9 0 20.647001678801093 28.72981566272324 28.506188190911853
30 10 0 32.972777979108145 14.663829053728174 8.965779877433267
31 10 1 33.470376940617356 15.270472273988966 8.75953705205425
32 10 0 33.751728807223685 15.790206553460743 9.583629862695663
33 11 0 33.68851628748236 46.58748609195703 13.008308972518767
34 11 1 34.49607046938997 46.510271792078086 13.485997846685214
35 11 0 34.48372491354156 45.74877204128952 14.081577173065291
36 12 0 9.81005453382578 18.099651227805165 46.68472665614593
37 12 1 8.829119513393612 17.94924391403706 46.98877585709968
38 12 0 9.081712660200713 17.138134049748313 47.724221350394224
39 13 0 36.73546962309757 28.01893016084549 47.402866861644476
40 13 1 37.67390484460884 27.981347991855564 47.356302566483734
41 13 0 37.99891259087349 27.22581703392394 47.83630351832031
42 14 0 12.79722237094214 30.543963914676556 22.248439410217397
43 14 1 13.125402469684875 29.87276849970633 21.536542567052578
44 14 0 13.576684880478352 28.950436569585055 21.61905519534518
45 15 0 30.14187721839136 19.255944829809927 43.16027676394524
46 15 1 29.44245399583379 19.893411266208865 43.25151304716252
47 15 0 29.076149033358252 19.85894832710072 44.128430315836844
48 16 0 41.197318928262106 36.4524496154759 46.13405238444041
49 16 1 42.01165790640106 36.49239026354722 45.76980925715921
50 16 0 41.762422174993375 36.60889284342847 44.89003370397226
51 17 0 37.85710988031809 25.749503506603045 23.774547962227633
52 17 1 38.42371431071542 26.297884529387932 23.259147210742025
53 17 0 37.93364223271459 26.900390308295304 22.761354286419785
54 18 0 43.06075246004593 3.598002974839185 19.979667634348168
55 18 1 42.17566526625826 3.159585198189293 20.21366395400704
56 18 0 41.662139242086845 3.855833656456104 20.690865903477548
57 19 0 38.92698589369631 11.30952102144683 17.19497451310857
58 19 1 39.71256613028715 11.742029565811762 17.24807758534485
59 19 0 39.789593040269075 12.39501750092028 16.555625051643375
60 20 0 17.123451696984315 47.66840537210623 21.975747134700416
61 20 1 17.954416167247853 48.04254457535307 22.255349031882332
62 20 0 17.921820759763953 48.98670220353434 22.122939920438725
63 21 0 4.368183176889785 41.15392997111522 43.05087050353792
64 21 1 5.149186453873209 40.566012115329855 42.82782945641189
65 21 0 5.232731205229881 39.889840615340006 43.311176898664314
66 22 0 26.59316387985563 18.402484655705628 2.29182383129417
67 22 1 25.758964813608575 18.998763822719646 2.180405256759471
68 22 0 25.299826042779948 19.186876018135486 2.9410076768104254
69 23 0 45.528347543946495 11.774760427028188 34.361048286371776
70 23 1 46.20216302110347 11.194297863428288 33.89770527916453
71 23 0 45.58901292194763 10.390762062498837 33.858935819288845
72 24 0 44.995393445316466 30.426786777653028 17.63624626022562
73 24 1 45.08711557483005 30.876479445073905 18.61943146446839
74 24 0 45.923927449644765 31.353544514184488 18.16739768473673
75 25 0 46.45328017258474 35.752863045854106 11.905991147165663
76 25 1 45.52707806020578 35.97872839041609 11.794826635900826
77 25 0 45.13553712397489 35.29423091526156 11.308335413292196
78 26 0 26.478470773376436 4.861308097070939 37.927724388546125
79 26 1 25.716880789790228 4.999389307726741 37.32191313208405
80 26 0 25.276614528660673 4.268721780133808 37.55882616805909
81 27 0 25.876301899587176 11.540566086775785 9.693446009578178
82 27 1 25.84067680681257 10.653136440635718 10.051764984840101
83 27 0 26.58312820738513 10.408971643551698 10.576735575476988
84 28 0 8.674690768531303 27.942336361102022 30.01788096394052
85 28 1 7.867942645943135 27.44284409237734 29.767213058211354
86 28 0 7.931359099142652 26.9382090194441 28.99456702130468
87 29 0 21.0740076212381 39.01448125568178 13.505391600521616
88 29 1 21.507737061227164 39.22149922510892 14.1636309021239
89 29 0 22.182253795084797 39.42045864167388 13.744208241004682
90 30 0 48.253237820174704 15.037379234928439 44.089217710187064
91 30 1 48.14611668575396 14.927174304300381 45.023534218859254
92 30 0 47.867142553142564 15.762011207350461 45.536146133313935
93 31 0 28.851625207954523 4.0069326103324645 18.83472766646742
94 31 1 29.080009738562843 3.391817201409539 18.044769519699088
95 31 0 28.278575526356082 3.1578849609517254 17.33350077172998
96 32 0 10.321652678624707 39.73632732301929 10.099162347853763
97 32 1 9.497389946660928 40.077223533304554 9.671831113979323
98 32 0 9.631193933421672 40.76970505953269 9.163592185769664
