ITEM: TIMESTEP
1180
ITEM: NUMBER OF ATOMS
99
ITEM: BOX BOUNDS pp pp pp
0 50.0
0 50.0
0 50.0
ITEM: ATOMS id mol type x y z
0 0 0 27.122122878602973 24.044025518801504 32.601317330108195
1 0 1 27.12107942606763 23.259973223452036 33.20999309700003
2 0 0 26.67711647617008 23.61148951948146 34.0419593972559
3 1 0 26.808958533335254 44.49312278425186 6.7600087639762325
4 1 1 26.642616103500046 43.59988242100696 6.469364599998672
5 1 0 26.35161871611766 43.42692061781126 7.2775246219702145
6 2 0 38.64951863518084 25.643341231591187 35.23470124645534
7 2 1 38.83239077489719 25.160072132008317 36.226216902380806
8 2 0 38.11777696937058 24.570339452997146 36.83069612128506
9 3 0 5.107131532439505 16.102539448196726 21.137585167551393
10 3 1 5.977057901445282 15.765041945756574 21.424597286283465
11 3 0 6.078041663255979 15.685382577536979 22.395262208783308
12 4 0 33.79394940078762 18.395064193307586 24.67985742431017
13 4 1 33.85806167302027 17.794026789591356 23.96759928132406
14 4 0 34.00337005902688 16.91442607781366 24.283694177614205
15 5 0 22.69664068479754 18.151981892461123 28.020721920133262
16 5 1 23.510558454610095 17.73673052290587 28.287591729067465
17 5 0 23.57065285439237 17.672172058586753 29.208811355230473
18 6 0 12.79626567798637 21.57665225759943 15.105715700677422
19 6 1 12.318887667439956 21.56947171348837 14.099153182054375
20 6 0 11.597072473375853 20.82796987110246 14.51597383095514
21 7 0 36.49432242035251 7.758015107145391 39.182280729629085
22 7 1 37.120607507633935 7.4426115316314885 39.658687892102336
23 7 0 37.46290138625387 8.130099080959681 40.03144130363786
24 8 0 5.3051484784969345 15.391787805601533 8.18281911516371
25 8 1 5.156617156943059 14.48753692562832 8.177443743470276
26 8 0 5.8090834576584784 14.00168568234424 8.706746403435739
27 9 0 19.511012590926615 29.388191610599076 27.800145338590816
28 9 1 19.924870505183495 28.646307150003707 28.249450041197314
29 9 0 20.669065500735297 28.725095917432945 28.52987902499374
30 10 0 32.89983070325452 14.569071767190355 8.95283061147135
31 10 1 33.47292158723413 15.276507489934032 8.758394619973176
32 10 0 33.77397799114355 15.817834112074308 9.568122098178733
33 11 0 33.66135576293042 46.619465485737244 12.96901653482625
34 11 1 34.49619783512801 46.50954893347569 13.486908314291245
35 11 0 34.51382020959255 45.73337053191467 14.109385930139798
36 12 0 9.836705619035628 18.12375447528467 46.65732260392268
37 12 1 8.827872100591664 17.948461818766035 46.98973990838241
38 12 0 9.07478716547882 17.126433279185505 47.73655871127108
39 13 0 36.723556784386865 28.04050575818683 47.39281898215455
40 13 1 37.67565691702659 27.982519912242182 47.35876475450535
41 13 0 38.02649453534294 27.229705138492296 47.83735279763381
42 14 0 12.79592932536792 30.549253875506118 22.267806972263305
43 14 1 13.124610677145652 29.874622017779593 21.532972372059852
44 14 0 13.585062044151611 28.934615259720346 21.632193890984233
45 15 0 30.139054128958367 19.253498846212352 43.148971318525966
46 15 1 29.44017592701588 19.89032271404452 43.2513564629657
47 15 0 29.06629100184033 19.86293512972447 44.125181485952155
48 16 0 41.11893863421057 36.45409734787318 46.127928836680965
49 16 1 42.02172911918765 36.49215545576662 45.7728761968449
50 16 0 41.6820630345935 36.61558669117179 44.84727968394785
51 17 0 37.85982906246488 25.749062998850953 23.774922458287538
52 17 1 38.42360523049947 26.295191504462775 23.261680037571693
53 17 0 37.93225894996665 26.90228356832476 22.759701660682083
54 18 0 43.110810107220914 3.5598786271313205 19.943791010340806
55 18 1 42.176406391871694 3.162851791621967 20.21489884617277
56 18 0 41.604386570065465 3.8350808981780804 20.709446479428742
57 19 0 38.90668006394679 11.286154446445535 17.207114160946787
58 19 1 39.715443384636686 11.742252406909136 17.24960088470973
59 19 0 39.80492686430776 12.400372321004246 16.559779273816936
60 20 0 17.1262904016422 47.630439903285655 21.967162236578037
61 20 1 17.95834216523301 48.04723890674323 22.24536395777355
62 20 0 17.96420036809873 49.0139336528079 22.11721150478808
63 21 0 4.277851014636858 41.14888396394103 43.148470642035115
64 21 1 5.147721408893064 40.57271286521499 42.82433543334799
65 21 0 5.238174198269444 39.72463990319285 43.44433863032342
66 22 0 26.678172606813302 18.555807806908955 2.078919974366934
67 22 1 25.758204307411766 18.983800607672105 2.1910367155020585
68 22 0 25.2248673362033 19.277049945150324 2.9783209986582606
69 23 0 45.605168742726654 11.796336522595446 34.33842387579947
70 23 1 46.19262022113251 11.19257215078298 33.9006558479736
71 23 0 45.66870690604915 10.396602468446638 33.829884679890235
72 24 0 44.95060245472951 30.405746187868285 17.690091816930654
73 24 1 45.1054870825021 30.876774613754968 18.611882905486578
74 24 0 45.876256259611566 31.3275380997485 18.250229296281343
75 25 0 46.45588820720049 35.73363844635201 11.89568216839277
76 25 1 45.526993266038076 35.98231204174917 11.796027259523306
77 25 0 45.141251860220784 35.261326611959824 11.290805806092367
78 26 0 26.469380835082305 4.985782448271045 37.83156328526409
79 26 1 25.722922536218437 4.9888425016725 37.33361047193036
80 26 0 25.186016311355804 4.311509240930293 37.467694140241136
81 27 0 25.868077142421324 11.575786569156817 9.673260329742112
82 27 1 25.837425449927842 10.651594807029978 10.0512072198006
83 27 0 26.615346971477518 10.385409920748124 10.603839445696627
84 28 0 8.720829293852542 27.95767319071055 30.01306210837732
85 28 1 7.863000967637679 27.443709853234196 29.77183610792921
86 28 0 7.948172533321356 26.90890996501203 28.94153290297455
87 29 0 21.110942865884716 39.023169560891176 13.38682175439385
88 29 1 21.492497381943267 39.225654495633556 14.177704256858494
89 29 0 22.184901287188882 39.426037244545086 13.592044385065904
90 30 0 48.265180154667775 15.020236589713768 44.035820522560286
91 30 1 48.145824315340036 14.927970755371609 45.02541181458879
92 30 0 47.86202231896505 15.767245689233437 45.56313445427806
93 31 0 28.863210711916732 3.950910291041909 18.759457069198774
94 31 1 29.079234476340275 3.3938105714711524 18.04798147818217
95 31 0 28.277237534391574 3.1764525167857545 17.36057288683269
96 32 0 10.313129687850035 39.74630071423652 10.089756749105264
97 32 1 9.496947304502674 40.07442091060468 9.673900552833693
98 32 0 9.646046347220652 40.80501352577092 9.139276459146462
