ITEM: TIMESTEP
1237
ITEM: NUMBER OF ATOMS
99
ITEM: BOX BOUNDS pp pp pp
0 50.0
0 50.0
0 50.0
ITEM: ATOMS id mol type x y z
0 0 0 27.200738563578128 23.973397936422014 32.51130638364608
1 0 1 27.13742036960123 23.284271675195136 33.2373681574423
2 0 0 26.696061371072332 23.475219295946566 34.111637328301285
3 1 0 26.901981034588783 44.49864679716878 6.444157931312766
4 1 1 26.62514386405862 43.599217007110305 6.455929293852909
5 1 0 26.306131960737513 43.492312427752154 7.368136944753129
6 2 0 39.65937581344422 25.671034157817967 35.81202471929879
7 2 1 38.79395420918741 25.122563157637167 36.24131404739834
8 2 0 38.0990627484688 25.23180034334206 35.60874684832736
9 3 0 4.565638694209056 15.794883646443136 20.907993749774736
10 3 1 5.4936469506744645 15.596550930056742 21.239739750195533
11 3 0 5.570502525861083 15.53665642198216 22.218778999526034
12 4 0 33.794525968735485 18.38162533727602 24.732610473010023
13 4 1 33.84823051274016 17.78348907381401 23.97831947129969
14 4 0 33.99995897123187 16.908463375718036 24.275920245226647
15 5 0 23.082470007700284 17.753556196451598 28.111877455407104
16 5 1 23.942492593743907 17.597463981579725 28.436798567935384
17 5 0 23.867952761431802 17.246217156815685 29.35152223826946
18 6 0 12.96946425246807 21.836069005631575 14.779360932506846
19 6 1 12.316090848253536 21.552377894217027 14.107613810038503
20 6 0 11.562827743926631 20.9382041180775 14.148842916262396
21 7 0 36.431638532475894 7.758099234130348 39.136439519328164
22 7 1 37.12130012684785 7.43802763980012 39.67222331665415
23 7 0 37.455900281348754 8.059434477139382 40.02077728323017
24 8 0 5.395610693213785 15.467569494466911 8.24015273069443
25 8 1 5.145062634777919 14.472933764520146 8.167420215603366
26 8 0 5.757326730509134 14.02817343435769 8.663409207887227
27 9 0 19.609430052922153 28.22705978286913 28.895855179653065
28 9 1 20.110567143258553 28.993099800012057 28.31740157399325
29 9 0 19.233572030108434 29.273147812532834 27.792970911309883
30 10 0 32.78037019249441 14.529213802174816 8.923405680156831
31 10 1 33.444706312415605 15.386219535521391 8.600839913455044
32 10 0 33.765693282980514 15.869308999821696 9.322491791232617
33 11 0 33.67570823781849 46.665423221603874 12.939847624721386
34 11 1 34.516962298052945 46.52571759005014 13.501350843205556
35 11 0 34.468866972688 45.73087054308937 14.095255740654542
36 12 0 9.15252660357502 18.6169458855249 46.29811449782183
37 12 1 8.843818464002652 17.905406122937613 47.02907827433674
38 12 0 9.489614997630591 17.315335382587076 47.48814731772719
39 13 0 36.84574532581453 28.137191252438292 47.521799614449165
40 13 1 37.8187713101713 28.127011602884448 47.4536425587687
41 13 0 38.220986232394004 27.45492292204714 48.01349037765926
42 14 0 12.930179580620711 30.437194912470172 22.25361744209787
43 14 1 13.09902175579077 29.941437645220578 21.432804736162225
44 14 0 13.522530646959874 29.127186920966547 21.766674158445063
45 15 0 29.849191517013214 18.98159270644791 43.0414261848846
46 15 1 29.28713381301477 19.74017093513017 43.19913845458588
47 15 0 28.867619039840864 19.673940295030892 44.05637725886562
48 16 0 41.74655812322718 36.382872822272844 46.72149668658107
49 16 1 42.02660250005507 36.51551776705386 45.714072347757266
50 16 0 41.125564682705274 36.59852922020303 45.204728037280695
51 17 0 37.81952270933458 25.630152775779738 23.891277510745255
52 17 1 38.424449513336675 26.15499358085156 23.3948619006055
53 17 0 37.93192626367407 26.78293242865188 22.86031179855342
54 18 0 43.10151121801365 3.423434810643829 19.89302046360923
55 18 1 42.19335615037709 3.1481546804489193 20.226167729651994
56 18 0 41.59711425143414 3.7974350306743476 20.731317730619345
57 19 0 38.98669592009261 11.212501785928694 17.322792291381553
58 19 1 39.85604967106751 11.697324855159964 17.385366828185326
59 19 0 39.93258629390824 12.338196417115757 16.69584763841531
60 20 0 17.564580343572818 47.75669638075166 21.287233424582453
61 20 1 18.298019557284643 48.273934228454294 21.693718644260358
62 20 0 18.54366439610583 49.10879909850515 21.227492768364748
63 21 0 5.164275718628122 39.5018051502197 43.98456868011147
64 21 1 4.674283060082423 40.3787839333836 43.47704480885533
65 21 0 5.455525250819101 40.709487192332126 42.61027367449761
66 22 0 24.942624979591603 19.5847540057215 2.247793642378669
67 22 1 25.809802325300367 18.930320771517525 2.151606476419128
68 22 0 26.003845126728834 19.35318700138534 3.104980374917946
69 23 0 45.76008984657034 11.902107754999026 34.30606231933041
70 23 1 46.1842368761416 11.188998100820948 33.8922089596681
71 23 0 45.881033110486804 10.336059005398308 33.725965317976836
72 24 0 45.15055539821043 30.23002665133981 18.26144663776386
73 24 1 45.795968837671126 30.758277314277134 18.622105737466587
74 24 0 46.6735531383804 30.86241183216608 18.47867454275918
75 25 0 46.478195388405936 35.79055577455389 11.925257715552991
76 25 1 45.55116757471179 36.00072554299279 11.763046066011665
77 25 0 45.149898496734465 35.23608830570045 11.252819528750464
78 26 0 26.543214073131786 5.271499730188126 37.67644444342548
79 26 1 25.71498996843917 4.97289966112173 37.34260212738317
80 26 0 25.055056290415944 4.1897960122315 37.47079467057602
81 27 0 25.89268927820519 11.532041111339957 9.677729079827321
82 27 1 25.732416447886877 10.60931548196446 10.04761696232359
83 27 0 26.579621818757044 10.318699599299391 10.53821524444776
84 28 0 8.755952260574944 27.82007107799605 29.798495873604914
85 28 1 7.812724136614568 27.454465581078214 29.84407616117996
86 28 0 7.746701110033193 26.866270359440342 28.9716499351709
87 29 0 19.8530314322604 39.301756156157104 13.624998177043
88 29 1 20.87401164717068 39.467433152351504 14.0212167053852
89 29 0 21.135996768468726 40.0977794492494 13.140653699874287
90 30 0 48.3002747328291 14.896443069237419 44.02565228205443
91 30 1 48.15042548349481 14.934367373026456 45.05589298735507
92 30 0 47.88370411951531 15.839470501941413 45.30663761954324
93 31 0 29.139549751779903 3.8437190106030763 18.787197461909308
94 31 1 29.059458862355324 3.358900121708394 18.028545752674088
95 31 0 28.18666008821837 3.5045674954605626 17.837532129733574
96 32 0 10.264397449383498 39.77375797265329 10.058460771308233
97 32 1 9.490499649694039 40.06965125745418 9.67583543395281
98 32 0 9.749908196034283 40.88074950938555 9.101461907465339
