ITEM: TIMESTEP
1298
ITEM: NUMBER OF ATOMS
99
ITEM: BOX BOUNDS pp pp pp
0 50.0
0 50.0
0 50.0
ITEM: ATOMS id mol type x y z
0 0 0 27.12450113434061 24.045880300707314 32.66641413541625
1 0 1 27.169756549742697 23.2842209654818 33.26348462372868
2 0 0 26.668991044639352 23.647878452193645 34.030577507966115
3 1 0 26.956528225584524 44.39446027193503 6.13549510623154
4 1 1 26.599231915993734 43.586579191870605 6.452250368715108
5 1 0 26.41872653877653 43.867617491500695 7.241284609741833
6 2 0 39.790591038329275 25.19833609529014 36.727213932169306
7 2 1 38.78397482120817 25.136819924558885 36.18050452176598
8 2 0 38.541572219820694 25.574531963126347 35.2303789172533
9 3 0 4.0849110254645495 15.447917657284167 20.720212215881176
10 3 1 4.967114993847738 15.416197998889322 21.041367831678173
11 3 0 5.0382030094941275 15.377657151446545 21.97737255170449
12 4 0 33.79561045658368 18.347708939787623 24.743734244536004
13 4 1 33.836920243200346 17.77421710417593 23.992839190010418
14 4 0 34.00113466410053 16.870732530281558 24.26573323210025
15 5 0 23.61395097222734 17.374841653468795 28.06075255055255
16 5 1 24.386923624431695 17.43689264588242 28.614615752572497
17 5 0 24.33863657075549 16.857293093537788 29.332344897133655
18 6 0 12.9370014513213 21.73683809758547 15.009112259888123
19 6 1 12.325158518005763 21.572213199038877 14.033950003400985
20 6 0 11.559157917752799 20.824213569375914 14.488809140495679
21 7 0 36.42664130702092 7.335008748992103 39.09041719381364
22 7 1 37.14181042187576 7.437215679143917 39.70423881824547
23 7 0 37.068803311064855 8.334948051648448 39.73290808578686
24 8 0 5.426744149587717 15.330183467134907 8.277535078737214
25 8 1 5.138009355996545 14.48396352007571 8.157307236998985
26 8 0 5.6760977278998075 13.842246674635332 8.621886944727942
27 9 0 20.891462362078506 29.311657157293094 28.223318785002043
28 9 1 20.11181216708404 29.301289717007478 28.39817706133009
29 9 0 19.69351786658215 28.57189160247126 28.734505492033595
30 10 0 33.03121811798721 15.017356618336455 9.090113559411776
31 10 1 33.38024483665024 15.456393728161558 8.444305220314172
32 10 0 33.96083471212912 16.172855860121 8.650995296816268
33 11 0 33.780711111162624 46.69629570295767 12.972353585358576
34 11 1 34.52994383360279 46.54101368698248 13.513749186240636
35 11 0 34.489703275413014 45.78540727751662 14.073596790330145
36 12 0 8.067641893208242 18.363493627866024 46.7184609048448
37 12 1 8.887560613411539 17.865028121449274 47.061394941583565
38 12 0 9.858738847625753 18.20717637312556 46.574996549848436
39 13 0 37.028862155087424 28.24514465180015 47.6506152100824
40 13 1 37.96865583622882 28.279010686885577 47.55876505335114
41 13 0 38.4283545219029 27.72453347147997 48.17622074341878
42 14 0 12.83774161137787 30.774782410520327 22.059833618639182
43 14 1 13.0797592188037 30.00329844134981 21.36248348848377
44 14 0 13.552527422537022 29.048353468563864 21.470709568855934
45 15 0 29.521159029500605 18.739795980777608 42.89863694519224
46 15 1 29.12438063952606 19.573256268548057 43.14666370812015
47 15 0 28.641550196494954 19.505099120392444 43.96860444596884
48 16 0 42.431625334385814 36.43178075531388 46.44412323295348
49 16 1 41.992604055612965 36.5391472794633 45.67801729814353
50 16 0 41.15761877055212 36.504952176691475 46.06619750885074
51 17 0 37.80238704459194 25.48803784776526 24.028280076115845
52 17 1 38.4206854230204 26.00809587425942 23.535997409985182
53 17 0 37.97899982134665 26.627963194315498 22.99009415832284
54 18 0 43.09820657802163 3.5088244657145005 19.9164767866318
55 18 1 42.20723779533614 3.1151825397654953 20.235930639662968
56 18 0 41.66465118810154 3.767812933997487 20.72374781777346
57 19 0 39.195861275725534 11.213614217962872 17.44330022750359
58 19 1 39.995289827763564 11.64373848877433 17.52913565257554
59 19 0 40.14252040763137 12.296574253938015 16.86515086599882
60 20 0 18.1057579013982 47.88748433171382 20.663882696085192
61 20 1 18.658138749853247 48.52902072355752 21.083326325996936
62 20 0 19.166543849341274 49.03534572944077 20.461530180009216
63 21 0 4.786592859124794 40.18995828629045 43.38857767991155
64 21 1 4.367167352617186 40.07883827423633 44.12182016200761
65 21 0 3.7989440333537643 40.77868024719881 44.105020280433806
66 22 0 26.42056917215318 18.941817751384097 1.647085113484944
67 22 1 25.725356418873144 18.954020208659674 2.2474387098371618
68 22 0 25.726124829303707 19.896430878810772 1.7956501879864306
69 23 0 45.53909365287817 11.756025040307014 34.34121511956551
70 23 1 46.22809082819364 11.19578389810489 33.864817371414084
71 23 0 45.65995423682562 10.360039634959124 33.827771969198736
72 24 0 45.99269828733198 29.71682420017044 18.622863196390284
73 24 1 46.51652904247172 30.67041349904398 18.66885900792175
74 24 0 47.25380766125327 30.038168961162548 18.432910346319655
75 25 0 46.460649209371375 35.835483056422675 11.934343679505291
76 25 1 45.57219771726265 36.02024814314344 11.722696469526964
77 25 0 45.280239699277864 35.259794445941836 11.272053170204797
78 26 0 26.345556907603783 4.917925225370555 37.803307287597306
79 26 1 25.692818842369903 4.987049077630951 37.32069948459386
80 26 0 25.401977118725775 4.214184613005881 37.685560316645436
81 27 0 25.740497951628058 11.408075430191307 9.651094415656718
82 27 1 25.63881071221621 10.571448612843097 10.047706957265914
83 27 0 26.378976000425773 10.18327588315645 10.438708213214607
84 28 0 8.644215144281326 27.771224756593043 29.82217193149274
85 28 1 7.7688646955738045 27.452157375368603 29.89375668224918
86 28 0 7.5013795583960885 26.939919950801695 29.213823889876146
87 29 0 19.36674881390524 39.72013097802413 14.245570402550165
88 29 1 20.161535644362033 39.7544308352074 13.809248865420606
89 29 0 19.918494201519025 40.250455328972635 13.002989668281595
90 30 0 48.33758233796133 14.683610392200784 44.17115556305263
91 30 1 48.156941621296845 14.948927949892 45.06484892090525
92 30 0 47.88710884557305 15.875771192939165 45.263831310142066
93 31 0 29.853452150455613 3.3172979102413933 18.398066274275898
94 31 1 28.999794798735863 3.3367904231574985 18.014125826928634
95 31 0 28.283331361964517 4.010526963056432 18.67179864232288
96 32 0 10.172838614406963 39.6298377157966 10.150851518309585
97 32 1 9.488972340195005 40.08674250002638 9.661745895861685
98 32 0 9.806322894016283 40.78136834052623 9.189304775618899
