ITEM: TIMESTEP
130
ITEM: NUMBER OF ATOMS
99
ITEM: BOX BOUNDS pp pp pp
0 50.0
0 50.0
0 50.0
ITEM: ATOMS id mol type x y z
0 0 0 27.150760204135022 23.883320913523256 32.33759491565086
1 0 1 26.960250704741107 23.224837127070025 33.054077753269794
2 0 0 26.71309502903629 23.791556975236187 33.837748068453585
3 1 0 26.672311855328527 44.199456774834545 7.4955556519365
4 1 1 26.810804078909182 43.64606666389266 6.66934813464202
5 1 0 26.468925997647027 42.75992282277708 7.023508000192743
6 2 0 39.169521532136166 25.680167572877217 35.79525542558207
7 2 1 38.58860534250363 25.072444828831536 36.5214629157868
8 2 0 37.59053122099747 25.00629872629644 36.0777563746728
9 3 0 13.705739392210793 18.832823643877145 23.857307326775903
10 3 1 12.989711134415924 18.259604736119158 24.301113175212866
11 3 0 13.501878034678748 17.52786074092787 24.78017385570548
12 4 0 33.81056159404213 18.479064205912405 24.650142238870732
13 4 1 33.94392237837255 17.87899262891631 23.83401677108207
14 4 0 34.027393485814144 16.919688845896275 24.159886003002793
15 5 0 17.67325547142788 18.859408723201014 25.45707830599652
16 5 1 17.09102284050794 19.479275697734554 26.052044647026236
17 5 0 17.082554283701665 20.412156544033788 25.584565791603982
18 6 0 12.732652013916255 21.441330171084225 15.254406185856258
19 6 1 12.28699402700522 21.522606742698745 14.445067874523703
20 6 0 11.70066390644987 20.830545662787625 14.629717151534404
21 7 0 36.505000986356286 7.077559103679754 39.03399771379189
22 7 1 37.197904302109194 7.547648543262197 39.60532096020453
23 7 0 36.837577956584006 8.494696445308554 39.50633112537764
24 8 0 6.021905289817988 15.062599932977273 8.744934312217698
25 8 1 5.226891787609546 14.609345958242356 8.240063840018708
26 8 0 5.342000562343068 13.610983480872006 8.431784901394131
27 9 0 19.724730062293816 25.667319018070305 27.07914502212491
28 9 1 18.696992562634467 25.271231269967156 27.22560531767557
29 9 0 18.64453162774039 24.00703249571225 27.621506594940694
30 10 0 33.44849547169745 13.388648152828596 10.498648744144104
31 10 1 34.163389123380995 14.1597581147523 10.766112044161888
32 10 0 34.31665588991691 14.015218071434619 11.812594977582922
33 11 0 33.34020177307268 46.177278382129344 13.159005496227136
34 11 1 34.332538055920566 46.33673858134063 13.365036703621058
35 11 0 34.53958984508353 45.68280035402436 14.11863726230266
36 12 0 8.751774843925977 18.642226507555414 46.3330784917973
37 12 1 8.85331639986896 17.881468811025293 47.04240355815195
38 12 0 9.885590967313254 17.741152899270503 47.00928995234376
39 13 0 35.40257691174983 26.823081383468004 45.87377628380246
40 13 1 35.661980798708925 25.893155053652993 46.16420908278014
41 13 0 35.55016854384872 25.30408473813675 45.35776566615821
42 14 0 12.602211747901002 29.115217513362033 23.031734586583738
43 14 1 13.352009747909674 29.19216444773121 22.442284407219926
44 14 0 13.530484829501555 28.254273996859435 22.366508644325155
45 15 0 31.748289174947278 22.459082332782422 43.31740176974209
46 15 1 31.690323558426503 21.954194539593015 44.17179202097989
47 15 0 30.7278820859275 21.837392432372145 44.39121553388354
48 16 0 41.082415569257876 36.36953886378221 46.09269021513366
49 16 1 41.92540626033146 36.37099797682266 45.7590587486933
50 16 0 42.10908141310333 36.482373770392414 44.884926130237936
51 17 0 38.21219784790655 26.95318955604659 22.629107223209058
52 17 1 38.23242155538138 27.737869194215374 21.938320255256738
53 17 0 37.247119653948154 28.08038120772016 21.832499824259877
54 18 0 42.19808263571485 4.2416740187835185 20.64106844257387
55 18 1 42.11621876908156 3.3725401755020066 20.114522175553635
56 18 0 41.1896836086117 3.066809310032814 20.337699813388827
57 19 0 36.99207311604586 12.277989103073637 15.01394844768585
58 19 1 37.955735832052305 12.393154241313146 15.431751433085557
59 19 0 38.41518202399503 13.232813279599068 15.000498922761741
60 20 0 11.889808279272703 44.24564904492361 30.619741534903188
61 20 1 12.53041857136139 44.96442309207872 30.87920079116029
62 20 0 13.336078167762652 44.4886669409824 31.235479165562406
63 21 0 10.118693041476925 43.5523868701959 33.42290611969077
64 21 1 10.469321971545167 43.74295754727684 34.238281745062395
65 21 0 11.091285678187218 43.09484808866401 34.259207693984756
66 22 0 25.93014151673514 19.862485217260843 2.1283180394793417
67 22 1 25.841981650995223 18.844591094542363 2.4318912470756744
68 22 0 25.70793089129739 17.886141896486844 2.153389327167424
69 23 0 45.64495554953518 12.004076230545273 34.43610238851586
70 23 1 46.07461763921684 11.176778720351022 34.04817129257818
71 23 0 45.285011330632095 10.546031870181965 34.00505540306405
72 24 0 35.34930679830514 32.951613663860826 17.838332886169752
73 24 1 35.31462024563565 33.60119596273805 17.233200994968477
74 24 0 34.82524402686726 34.22376155870398 17.69113967739122
75 25 0 46.1617683948468 35.42003196858697 11.63151162810722
76 25 1 45.34718285633578 35.87841809216851 11.9980304190853
77 25 0 44.48791591994447 35.49499914464032 11.61082571656364
78 26 0 25.253037357217327 5.491227782652739 36.63485392157283
79 26 1 25.818650107234614 4.921031676578448 37.41980187622435
80 26 0 26.605549269891732 5.710868853549448 37.369970886361514
81 27 0 26.215084513647614 11.86299672901193 10.017331398162732
82 27 1 26.88916709291404 11.084202865666969 10.102514662422028
83 27 0 27.05191609865115 11.011627518477313 11.122850668150518
84 28 0 9.005062577709106 27.906281104006688 29.874410941947577
85 28 1 8.43292317947857 27.430986755632453 29.15063280113454
86 28 0 9.154431077016968 26.99322985055869 28.538061837554512
87 29 0 31.005936719205323 34.89341421940614 17.09176751223476
88 29 1 31.65621527152512 35.202417295802434 16.41549209088064
89 29 0 32.03409169153628 34.30937447790287 16.22858949317115
90 30 0 48.183383046948585 15.08544744805795 44.03050557727916
91 30 1 48.06862267672089 14.893084720811078 44.917914476521126
92 30 0 47.92070440392107 15.771711867869833 45.170189267628146
93 31 0 29.63512021873037 3.902121685046178 18.746809286994715
94 31 1 29.122833568774237 3.562848643089918 17.90387794775243
95 31 0 28.12117926811403 3.8413660595483146 17.763536165895626
96 32 0 9.861562659927968 39.365025660271186 10.296235422889248
97 32 1 9.502068561639497 40.09244647078909 9.663432584336762
98 32 0 10.348299477028688 40.649643197424815 9.399462266933401
