ITEM: TIMESTEP
1319
ITEM: NUMBER OF ATOMS
99
ITEM: BOX BOUNDS pp pp pp
0 50.0
0 50.0
0 50.0
ITEM: ATOMS id mol type x y z
0 0 0 27.12363375656583 24.014414986024914 32.71014022619117
1 0 1 27.17734157724852 23.292511858184874 33.27572381478012
2 0 0 26.698423869711362 23.644568962754043 33.97229768166505
3 1 0 27.01141443127416 44.330732455668034 5.895012873931197
4 1 1 26.592123684796206 43.58547535734462 6.448518725665956
5 1 0 26.392341423474523 43.97366950157392 7.365337758847231
6 2 0 39.40943362832793 25.113672521248844 36.62376057401911
7 2 1 38.81049107003048 25.147084689415117 36.16931231185555
8 2 0 38.64429047754389 25.52958427429363 35.36130832254751
9 3 0 3.8758836293564296 15.330215466678649 20.669456087655494
10 3 1 4.788589174642362 15.353733542701415 20.96871796411224
11 3 0 4.833725920117572 15.318700460642937 21.94465522499134
12 4 0 33.79498322333162 18.355070196525347 24.778049948295628
13 4 1 33.83266439810007 17.770914462354757 23.994890561958226
14 4 0 34.006493769262484 16.83533178272163 24.279160326323748
15 5 0 23.789234005736287 17.243777675138176 28.011796644142684
16 5 1 24.539877259303044 17.382283105294317 28.674312564821665
17 5 0 24.515650808102087 16.69120416748595 29.377175354969594
18 6 0 12.800806050677721 21.722179580589714 14.728497482432532
19 6 1 12.3239679336052 21.563245429971385 14.046049479702637
20 6 0 11.753929541105894 21.018516831041744 14.362865648293205
21 7 0 36.49297909973814 7.0153768091994015 39.113324209795834
22 7 1 37.154910963331844 7.44270521617903 39.721142338013244
23 7 0 36.770488911357546 8.509677806442694 39.502880116130086
24 8 0 5.482103520971386 15.372323272387574 8.313311679975053
25 8 1 5.130482779482604 14.483698638976927 8.150442670184148
26 8 0 5.683308158378071 13.752101877867162 8.636279566421278
27 9 0 20.198756261357225 28.704945231579398 28.998495995550556
28 9 1 20.216186795103845 29.380462616142555 28.43581579963758
29 9 0 19.328047343391063 29.75577322048273 27.89981706197511
30 10 0 33.1255556718683 15.198251659242143 9.253439639650537
31 10 1 33.35662046583518 15.478911456304955 8.388200876561822
32 10 0 34.05037565305875 16.298413830068505 8.341764620635335
33 11 0 33.76732348733354 46.679227288404086 12.977538245745363
34 11 1 34.539424325745976 46.55067232022203 13.517553774458802
35 11 0 34.46918769781223 45.76359366994572 14.081791086092013
36 12 0 8.106885824503703 17.987951630542582 47.07154404876084
37 12 1 8.920826217724924 17.880203639947656 47.04171760171103
38 12 0 9.281590484730723 18.33716887423155 46.545359661432585
39 13 0 37.05627465248458 28.268861567922094 47.7138854373958
40 13 1 38.02267145747893 28.333713527436913 47.59235185325612
41 13 0 38.499771441809756 27.793512527720676 48.26289578928484
42 14 0 12.89741285339392 30.67620415551376 21.953806612335605
43 14 1 13.072395449994882 30.02582596814295 21.33364360899935
44 14 0 13.4805156318058 29.222038994363192 21.473839849924413
45 15 0 29.407761446038112 18.64482151135912 42.850347899960376
46 15 1 29.06847494092641 19.51649067552865 43.12768115778638
47 15 0 28.554766791986555 19.439638095251187 43.95404755854163
48 16 0 42.7182312276953 36.45889789682738 46.26193842310127
49 16 1 41.97427859068305 36.54632358397585 45.677770978090244
50 16 0 41.2275228477638 36.48545497112414 46.25373204111364
51 17 0 37.75144371041431 25.415838889751225 24.098272987539094
52 17 1 38.424466190239 25.956567673153003 23.585595614213343
53 17 0 37.959821846736205 26.612869364176237 23.00120246299854
54 18 0 42.96411826690999 3.4929424268104396 19.97805380710436
55 18 1 42.21812467247656 3.109361067184804 20.23851978150733
56 18 0 41.72684535633966 3.7052395608275743 20.68268327068255
57 19 0 39.17361710646658 11.178641265041533 17.456582553353403
58 19 1 40.04981370268805 11.624855409382196 17.584124780387352
59 19 0 40.21087642343385 12.327971667892859 16.86577608609761
60 20 0 18.28501160256965 47.903069354139355 20.453062966408126
61 20 1 18.78297994758771 48.619889797223586 20.869894440815052
62 20 0 19.387961396495584 49.001172333491006 20.225646546489035
63 21 0 4.3016714840296935 40.4796246131031 43.5982820664328
64 21 1 4.264384932570457 40.00156397066294 44.31291381986306
65 21 0 3.522100795800432 40.32582027036761 44.72187719422439
66 22 0 25.878729362907336 19.51244988022317 1.3541254856147822
67 22 1 25.69668607087142 18.974945693644948 2.2292888957134345
68 22 0 26.67177522400718 19.090664888807183 2.2444252462732788
69 23 0 45.56571190427773 11.715461446359768 34.31479373846413
70 23 1 46.23094539189785 11.195226289990618 33.85931993615512
71 23 0 45.67980022880775 10.4046706800727 33.835460782637085
72 24 0 46.266330658026355 29.74075417271509 18.856421466251437
73 24 1 46.76324275440743 30.614139141541575 18.67248325457104
74 24 0 47.52238420556314 29.959835642323156 18.51651925329604
75 25 0 46.519923118011306 35.862608685427446 11.96524380703238
76 25 1 45.577545447451904 36.02886995198107 11.708171831479849
77 25 0 45.29051982723702 35.233385026649046 11.250730553181025
78 26 0 26.526044527381636 4.840037843921529 37.979950412926165
79 26 1 25.679141756154493 4.995337183250453 37.306733528332984
80 26 0 25.367275024542124 4.122618738806113 37.72931739295106
81 27 0 25.72891777295553 11.425329321024467 9.625511167889616
82 27 1 25.598081107144065 10.553611734788443 10.047477228817478
83 27 0 26.39354827158784 10.147137254444162 10.425404964468711
84 28 0 8.662431422688618 27.778404258934575 29.833304296387656
85 28 1 7.748153442738606 27.453320891392902 29.917994051509712
86 28 0 7.444142190431136 26.90911758419181 29.186247967046327
87 29 0 19.36220609400376 39.791672752832895 14.414257879377915
88 29 1 19.89501899507618 39.86713544653057 13.737991623898049
89 29 0 19.649390076201133 40.16104447089223 12.968853973584844
90 30 0 48.33213652961161 14.686706189064143 44.212353935351395
91 30 1 48.15959956304598 14.95139848452353 45.070422226470974
92 30 0 47.90142110147165 15.853151306656677 45.22072350701125
93 31 0 29.82601078115319 3.047179693561236 17.999588224246388
94 31 1 28.96348086574245 3.3545943121795205 18.03991900403421
95 31 0 28.841049286699185 3.8634018663504723 18.733372844291885
96 32 0 10.182011765318745 39.56033550293211 10.20617887354307
97 32 1 9.482028680766977 40.088826873877785 9.658513463863052
98 32 0 9.885188304077461 40.82826909014474 9.168819168694702
