ITEM: TIMESTEP
1353
ITEM: NUMBER OF ATOMS
99
ITEM: BOX BOUNDS pp pp pp
0 50.0
0 50.0
0 50.0
ITEM: ATOMS id mol type x y z
0 0 0 27.171756098601325 23.99903741758126 32.64565333414765
1 0 1 27.190659270722993 23.306594123236085 33.29334091056439
2 0 0 26.6812873466614 23.604891940109862 34.05400351837688
3 1 0 26.970039666747375 44.17422929429228 5.830167607024151
4 1 1 26.576901362784234 43.58266170915489 6.453142085376722
5 1 0 26.542720814883577 44.21491526478217 7.072191779730764
6 2 0 39.84163530413895 25.32358193129373 36.507443826897095
7 2 1 38.79428791223789 25.13450320385298 36.1662388736909
8 2 0 38.704939475979366 25.576531354865015 35.286212471777624
9 3 0 3.622985242180276 15.148929857290936 20.52359896985549
10 3 1 4.4953888734421055 15.253835982756335 20.86372078631207
11 3 0 4.595109370445796 15.233387880623582 21.79840585870692
12 4 0 33.79384331851715 18.341350867894405 24.773631957759992
13 4 1 33.82663319262374 17.762807945214224 24.003376637867067
14 4 0 34.00233729792929 16.84533692864164 24.274822762895653
15 5 0 24.188932637573014 17.072951075498583 28.02098741347443
16 5 1 24.771603079516062 17.285119486585494 28.768456411532725
17 5 0 24.833269002436037 16.544211928233224 29.35789010500421
18 6 0 13.10906268963763 21.946340139449035 14.790756928577867
19 6 1 12.326212759192371 21.565036590183933 14.025499171944215
20 6 0 11.474217193424755 20.82299187634339 14.289933732638572
21 7 0 36.937424428288836 6.543481525032261 39.442882998046954
22 7 1 37.14202733653407 7.503559293600921 39.7246257183843
23 7 0 36.49650420464818 7.915922748698685 39.219609380492315
24 8 0 5.516598096686985 15.303061330650774 8.345568069154307
25 8 1 5.1264574240822345 14.481636334387497 8.145460095080788
26 8 0 5.620062966311762 13.770107353098231 8.586811287998378
27 9 0 19.991999919574234 30.18713844527213 27.919876184644398
28 9 1 20.18975917972846 29.49186335856921 28.500050812114978
29 9 0 20.928519190729748 29.416524158979144 28.81239440747935
30 10 0 33.36006829210436 15.590140402647284 9.208152572902943
31 10 1 33.33460593199649 15.53180886674378 8.320607345514643
32 10 0 33.86954509398843 16.120198915971788 7.813867120181124
33 11 0 33.808784819949985 46.71486794124025 12.973530473840507
34 11 1 34.54498302245561 46.5570995670986 13.525072313708856
35 11 0 34.527785078011554 45.80972810464969 14.085029127349234
36 12 0 8.375844785304867 17.415841035866823 47.57537248566564
37 12 1 8.949574668131726 17.896589234930328 47.021784154034826
38 12 0 8.54353210775479 18.642670804489786 46.374325959369145
39 13 0 37.15670244027934 28.34319417974104 47.763651760391255
40 13 1 38.10402579670808 28.41395977905086 47.65377354939375
41 13 0 38.620577198319765 27.96295065208707 48.32362011751921
42 14 0 12.864977113318226 30.86010166631725 21.946600933604774
43 14 1 13.05838326720105 30.063733427608867 21.281353446077393
44 14 0 13.529192439627925 29.124870278223323 21.41867743281626
45 15 0 29.221841631561606 18.548702546143755 42.766870795808615
46 15 1 28.97914107772642 19.421263651759716 43.100545941679854
47 15 0 28.43462250867737 19.364447829390674 43.89527054108931
48 16 0 42.800309364688474 36.51366541594725 45.9287431489117
49 16 1 41.94896957294267 36.55763925554999 45.68133260574326
50 16 0 41.65441911935959 36.45156377754102 46.530821021394125
51 17 0 37.75410579299038 25.36634149129234 24.147653249269485
52 17 1 38.421238219470936 25.87589881504675 23.663910991176465
53 17 0 37.995309367128016 26.51462425467276 23.084447974336648
54 18 0 43.076475912669906 3.4868668187208245 19.915865756614814
55 18 1 42.228152327039794 3.0964220407235796 20.24546411817344
56 18 0 41.61945728816389 3.637360984076413 20.73441576221474
57 19 0 39.2965993436849 11.177349858712429 17.532187080616108
58 19 1 40.1263481436796 11.598682775638636 17.65949961715599
59 19 0 40.32044062247705 12.269636467687485 16.99663822299854
60 20 0 18.53683478991484 47.963891552332676 20.256023830100617
61 20 1 18.98319602609792 48.75788652473479 20.514953191713207
62 20 0 19.73210563412688 49.009121725882665 19.98512763116073
63 21 0 3.490353204333196 40.49084752524942 44.61905282691544
64 21 1 4.052771167810421 39.92462111359156 44.60225653126283
65 21 0 3.9064542336837422 39.32820643098037 45.22596625022802
66 22 0 25.91993594878815 19.44465266721668 1.2669467328351833
67 22 1 25.775047859215483 19.04046761113801 2.199595419152373
68 22 0 25.286793749617075 18.2711417072847 2.5889968346709336
69 23 0 45.600561445726385 11.821762107058957 34.33133159075257
70 23 1 46.23473830713587 11.193768474487031 33.85071957673581
71 23 0 45.732631760745875 10.3138202489396 33.7850157877513
72 24 0 46.73123073770458 29.71911680926544 19.200046556578634
73 24 1 47.153563112025395 30.524506300498 18.68197759152572
74 24 0 47.930597022167845 29.89790605717155 18.622075073990867
75 25 0 46.47444810832119 35.89710105645698 11.961223920993074
76 25 1 45.591614946117936 36.04039829338245 11.685497778467525
77 25 0 45.35573234041533 35.2406115694232 11.255868395063626
78 26 0 26.306769279785595 4.838969279086559 37.83685224662735
79 26 1 25.696415466790544 4.9838428025949835 37.32818881324312
80 26 0 25.192430071203557 4.2478596288134405 37.52429962063169
81 27 0 25.65962701994713 11.344948039483803 9.628099649796804
82 27 1 25.543447466658485 10.529880364249578 10.04706954264357
83 27 0 26.301285507611794 10.120428963064324 10.362536011078543
84 28 0 8.576668840728964 27.742563347320626 29.848752010854664
85 28 1 7.7149012722025905 27.451114216842708 29.949974538656786
86 28 0 7.471349905841114 26.971492299415374 29.251528943818347
87 29 0 18.985863157454084 40.00254935851531 14.400245056796656
88 29 1 19.525886842722507 40.03581459663272 13.635942962620396
89 29 0 18.742118907612188 40.0774174676039 13.023895443370792
90 30 0 48.33727366513363 14.668450050780745 44.21264367963326
91 30 1 48.16427455872146 14.954184215590603 45.078814929710816
92 30 0 47.90417173023407 15.859018334855856 45.22660544686925
93 31 0 29.281008828753958 2.839424808667556 17.453235571992874
94 31 1 28.93217471271 3.3733852837276377 18.079752369097616
95 31 0 29.805675420353385 3.5578228187001675 18.76409256958841
96 32 0 10.097013604389835 39.563019893148414 10.186913820551958
97 32 1 9.481323140637802 40.0932532147918 9.654542736642496
98 32 0 9.941762633444746 40.772094191672274 9.223326885401654
