ITEM: TIMESTEP
1376
ITEM: NUMBER OF ATOMS
99
ITEM: BOX BOUNDS pp pp pp
0 50.0
0 50.0
0 50.0
ITEM: ATOMS id mol type x y z
0 0 0 27.22545987877286 23.941515557052654 32.61168390167241
1 0 1 27.19657040772504 23.322604391509486 33.30658731721171
2 0 0 26.70357190274448 23.533442041448904 34.08815976976962
3 1 0 26.971286338067436 44.06273963648232 5.694175065002423
4 1 1 26.566613621207498 43.58305940252963 6.45803263270644
5 1 0 26.614780525912206 44.34745909842757 6.933154730966137
6 2 0 39.77151309206628 25.50281340723062 36.119268758137196
7 2 1 38.812065269761696 25.129349307520293 36.1768742952781
8 2 0 38.65150050705742 25.51808902911576 35.340201127241684
9 3 0 3.430507991906969 15.023645293595301 20.452651981356766
10 3 1 4.299044696311714 15.18608156614272 20.78838141524071
11 3 0 4.398556157884579 15.17173168140422 21.733200953365365
12 4 0 33.79319178788026 18.339343803497567 24.787074064966905
13 4 1 33.82208769222977 17.758159776575077 24.00676823838189
14 4 0 34.00548596902889 16.826994821108592 24.292960554041503
15 5 0 24.444192272180338 16.94794697942805 27.998804905788084
16 5 1 24.92904431189142 17.219384066023235 28.832183800391466
17 5 0 25.06455559336651 16.43331833492782 29.371808088863837
18 6 0 13.11203762188639 21.971006390381316 14.724783719478186
19 6 1 12.327688893869247 21.56489234074276 14.01550355875988
20 6 0 11.492787383189151 20.839605426497837 14.283287617302227
21 7 0 37.470095099126155 6.539790078793921 39.89909828088397
22 7 1 37.116406683261964 7.52517071131887 39.71046420241747
23 7 0 36.34931097230495 7.510082798305972 39.06064146061556
24 8 0 5.542966000484969 15.284841649946785 8.366538216269223
25 8 1 5.1193719216738724 14.480801828125486 8.138724258594594
26 8 0 5.642583840402673 13.743257178145248 8.60587089394057
27 9 0 21.138810100976293 29.604059048731713 28.468255548471937
28 9 1 20.23082839887378 29.67466521721332 28.509891199122983
29 9 0 19.78675977658752 29.06948841077467 28.69464634905381
30 10 0 33.53307933571142 15.868188796461428 9.078006600244148
31 10 1 33.31680731907596 15.564195494601316 8.27600179379433
32 10 0 33.784338171558296 16.048233796834037 7.530194161797673
33 11 0 33.81397649804363 46.70407463989604 12.984514472606048
34 11 1 34.55282955761367 46.5655906728885 13.529447409575047
35 11 0 34.527422700216235 45.81132581154052 14.086758422422074
36 12 0 8.849413689344644 17.34664346360783 47.56456957601739
37 12 1 8.946070106145726 17.92023964938976 47.00002583791891
38 12 0 8.119704999359111 18.33036979422542 46.742856301670734
39 13 0 37.2088824224216 28.37647304592127 47.82199439686427
40 13 1 38.16108949574193 28.47071350453123 47.692387966983944
41 13 0 38.69017047707606 28.057438800096637 48.39493765912132
42 14 0 12.903887961109326 30.843348354199986 21.912617931675474
43 14 1 13.048040876296344 30.0896558546462 21.243572185955028
44 14 0 13.512973211926704 29.201105982253708 21.44168413612951
45 15 0 29.090952070664695 18.4725012370754 42.71626633877711
46 15 1 28.918963747993853 19.357788131087272 43.08124552050275
47 15 0 28.345924521265072 19.300872210312264 43.865311819988804
48 16 0 42.82074262869552 36.55886005276826 45.64193984635774
49 16 1 41.9362592268882 36.56399204334427 45.69657865910336
50 16 0 41.91093435082939 36.448120780286196 46.573230035159526
51 17 0 37.71369935124242 25.31548309308989 24.198019727179805
52 17 1 38.423154534110196 25.820813254197056 23.71753971362658
53 17 0 37.99745975306583 26.47199298307938 23.119320566071313
54 18 0 43.04737225771385 3.4640143103531793 19.923556303426267
55 18 1 42.23650098137829 3.089615427247945 20.250248166131364
56 18 0 41.629991557104034 3.571153281047943 20.720519726783603
57 19 0 39.333628807901036 11.16406393700373 17.563000975833287
58 19 1 40.182747425133655 11.579395388597268 17.715990317868567
59 19 0 40.37449031653475 12.270190185042495 17.02120686861696
60 20 0 18.701384107973436 48.01164900507938 20.11418826677537
61 20 1 19.121055429042368 48.85141102307173 20.27356976304903
62 20 0 19.949011767046848 49.01735336565812 19.825225768416143
63 21 0 3.350072834694082 39.99382209184502 45.36633477108574
64 21 1 3.8680018915579906 39.87023900610209 44.83769655702048
65 21 0 4.406476303868549 39.185332592369384 44.90284948256031
66 22 0 25.46770283218695 18.261815715885415 2.6351125693731468
67 22 1 25.759858206517556 19.02645438935458 2.099531547391321
68 22 0 25.918586341890002 19.790078378840963 2.6703840473783815
69 23 0 45.686509860028934 11.91999808556544 34.32266737134049
70 23 1 46.229820661932955 11.19119279627174 33.84765526525199
71 23 0 45.82809333125164 10.251298445738767 33.724174997194645
72 24 0 46.995728311559915 29.786946746610493 19.42616098632987
73 24 1 47.416746462147756 30.44974168361706 18.69714135991756
74 24 0 48.30580230219162 29.989492848325824 18.56709891255094
75 25 0 46.49619788351819 35.93964495951286 11.985719941956612
76 25 1 45.600165286873676 36.04776817659889 11.669103557301542
77 25 0 45.36311731803822 35.23842144575104 11.241749132861504
78 26 0 26.345895362990497 4.858875649075566 37.849611780196184
79 26 1 25.70114592908326 4.973649165591982 37.33984038323193
80 26 0 24.996013611929484 4.349382126151639 37.32183717558702
81 27 0 25.65818779355728 11.320519596744424 9.618471718699434
82 27 1 25.499869755988897 10.510301487354802 10.047748912726108
83 27 0 26.28927749882398 10.123396691957867 10.316238508406544
84 28 0 8.563245765790509 27.737815218583837 29.859506984152667
85 28 1 7.688454178212837 27.449782249142004 29.975011543494
86 28 0 7.50319517069682 26.990986651573834 29.246360647336694
87 29 0 18.797800393956326 40.0408995564362 14.341393813115378
88 29 1 19.254849495078247 40.16058493826027 13.559086900108142
89 29 0 18.371264442769967 39.96529721853906 13.229469460988614
90 30 0 48.31650519391787 14.737560540699773 44.23486387566424
91 30 1 48.16851085695532 14.95203236436474 45.08558679393181
92 30 0 47.91435834075269 15.84659698667122 45.193232420067325
93 31 0 28.735786018919338 2.9833086090942063 17.42182339322576
94 31 1 28.951476855080877 3.3844013110238254 18.123606861538402
95 31 0 29.9861111395284 3.0907955683207384 18.177848857273933
96 32 0 10.116793777434312 39.53933583177781 10.20904051301233
97 32 1 9.475263110165125 40.09617991061431 9.650752202514463
98 32 0 9.989280714444496 40.7609463249135 9.241332149464576
