ITEM: TIMESTEP
147
ITEM: NUMBER OF ATOMS
333
ITEM: BOX BOUNDS pp pp pp
0 50.0
0 50.0
0 50.0
ITEM: ATOMS id mol type x y z
0 0 0 27.12603114876403 23.925836442647828 32.40512393297824
1 0 1 26.954370525778696 23.221524300728444 33.05587586926304
2 0 0 26.71775363440784 23.84793181583818 33.801085176264934
3 1 0 20.611578681474864 35.24728300749906 28.014105248226592
4 1 1 19.389027957089382 33.825687680193624 33.05921260549938
5 1 0 20.687621792064313 35.141176694372746 28.314742206235017
6 2 0 39.285460845067185 24.650809027823282 36.90642053529797
7 2 1 38.388891199121275 24.410972469084598 37.31104708639467
8 2 0 37.59331979210214 24.55973816012761 36.64457499532331
9 3 0 28.25822790819552 3.766775058232272 38.657010186134755
10 3 1 28.671919440298463 3.323466665061227 39.568726472924176
11 3 0 28.3538259606768 4.3369871468792605 39.46668195169466
12 4 0 33.812888757742435 18.470220417415767 24.64021219243629
13 4 1 33.94497311721853 17.87642860914431 23.83348029047176
14 4 0 34.02545274376527 16.942232070127442 24.16380585517434
15 5 0 23.189914796176588 26.467999357486537 44.11226001557749
16 5 1 23.141278484773977 27.155381760186025 44.978054538666164
17 5 0 22.853322332509087 27.50538049498846 43.982498612766975
18 6 0 44.733765181713885 35.95408136100568 9.597774314484514
19 6 1 45.0812014601139 37.215524624377494 9.568922078476286
20 6 0 44.21698853939554 37.218352113831685 10.110229892083598
21 7 0 36.4701636387056 7.171576877025172 39.024785322441744
22 7 1 37.204774469855664 7.542756466515315 39.60933048099976
23 7 0 36.7625863633491 8.478565001269528 39.450535420083426
24 8 0 3.6407546617121254 15.754465946985935 10.872719999038079
25 8 1 3.6189570123556623 15.267512663237529 9.891368057386227
26 8 0 4.267113219746972 14.509531766983136 9.798877818477894
27 9 0 29.39117742157819 17.476056375420164 10.323657346976685
28 9 1 31.866379376454066 15.396961282058038 7.279508805462578
29 9 0 23.524067724671546 20.58771755144935 6.038440245000143
30 10 0 34.37601870037471 15.927799684834532 12.762230580623552
31 10 1 33.922199955700584 15.914113679294204 11.491315134500406
32 10 0 33.01730896985136 16.462380154849953 11.203907825402633
33 11 0 33.80414919092704 46.36735677509422 13.230803266064363
34 11 1 33.15070662232059 47.64211877188221 11.887670037214654
35 11 0 37.942140020462034 43.88858996840847 16.524268747555197
36 12 0 40.789433348778246 38.365359705539596 11.313968573740032
37 12 1 41.71959299428078 37.9706854636988 11.158807189978502
38 12 0 41.8774448874387 37.404692556739235 12.005941483178052
39 13 0 35.39878719628905 26.79542553934546 45.842182882562284
40 13 1 35.65890396939454 25.887040731504964 46.163995488569874
41 13 0 35.54034552220667 25.34449231860733 45.3472583243464
42 14 0 12.60670479055373 28.98643500648917 23.039621275102355
43 14 1 13.359650627402756 29.199489347125553 22.440286230140902
44 14 0 13.437856557258565 28.227503197292883 22.442960205755234
45 15 0 29.490667096634127 21.780131353012543 42.9370076414611
46 15 1 30.415296629598217 21.811256213437453 43.56890379958699
47 15 0 29.952179257485742 21.819678664962094 44.41419127120147
48 16 0 43.884044710221865 35.984366116412104 44.2528817234672
49 16 1 43.552106503219605 36.10652664855884 45.20262414004976
50 16 0 42.65467362229701 36.3067803392006 44.71854570877085
51 17 0 44.26126085320659 22.56025916769808 25.415589990574773
52 17 1 44.52905894767802 23.2697785033535 24.75249731645064
53 17 0 43.59738750041747 23.691564144344202 24.56069414465457
54 18 0 43.92116734881003 14.024610223473825 18.62102801570954
55 18 1 44.201844045268444 13.765932845694437 17.670273115640057
56 18 0 43.90599743366776 12.791463650597178 17.802979920508733
57 19 0 37.57493202846157 14.111787162541157 15.598312248919134
58 19 1 43.67203589806827 27.583571623969213 17.858694697169877
59 19 0 38.80327664892307 14.945957100424335 15.51716534177175
60 20 0 12.462549014666711 44.306284533696434 30.775696570622532
61 20 1 12.919553182893578 45.17662932063228 30.94403560751081
62 20 0 13.934677732328277 45.11249350990548 31.15605314202834
63 21 0 10.216513349519508 43.409447228797966 33.302135170450974
64 21 1 10.458816629293217 43.79350758512892 34.19106740792929
65 21 0 11.041405292443104 42.98207678954464 34.01144499909513
66 22 0 29.78009131018426 18.776176092877204 9.385544529940667
67 22 1 30.624173984486337 18.29361887724213 9.195642335911502
68 22 0 30.293468982331976 17.73489180829245 9.995216402546786
69 23 0 45.5751079946611 11.951131524787488 34.43378047642617
70 23 1 46.08181638228822 11.176007696993443 34.04675696501201
71 23 0 45.241437585662915 10.610633031247158 34.03794789353189
72 24 0 37.15241237439454 30.69882058658146 40.912874426094184
73 24 1 37.75424410320113 31.470809684627795 40.80231430992314
74 24 0 37.21403100521978 31.675835089675978 39.86359059691094
75 25 0 46.16573310690769 35.44732348121586 11.65745918014845
76 25 1 45.349953493426746 35.87732343431976 11.987689212705865
77 25 0 44.432744428428684 35.54171454060211 11.649677199624705
78 26 0 23.626049206474782 13.644741890222967 28.03814780103325
79 26 1 24.300543480238865 13.193912431888787 28.641105350463043
80 26 0 25.22098260868366 12.909524255043264 28.350619364888388
81 27 0 30.7907814926673 12.363101638482597 15.537274717629407
82 27 1 33.167550311463685 12.49290715251716 17.550133619292776
83 27 0 30.684688478501997 11.975726370104741 16.09030671416817
84 28 0 9.76583923519034 25.38584169102718 26.43145013835241
85 28 1 9.237465768811273 26.01651153638244 27.247160698471706
86 28 0 10.212168907337245 26.13986907577228 27.387299721999046
87 29 0 30.984966758417663 34.72191752012713 16.95634157486844
88 29 1 31.649210307413412 35.1544763288848 16.28054810112178
89 29 0 31.95127798837914 34.20735200341428 16.18853876329806
90 30 0 48.164142223268435 15.277648376449221 44.00191547204054
91 30 1 48.068798013602134 14.876083830166078 44.929579822183
92 30 0 47.93576368374538 15.851717534747166 45.011003346785344
93 31 0 28.596442107510644 4.0035625961845716 16.962073579166358
94 31 1 29.334825913492573 4.134878972319027 17.628746793356047
95 31 0 29.247731493022705 5.140292987612009 17.951094957769023
96 32 0 9.560247643838812 39.04213691812202 10.370856159332812
97 32 1 8.827793599708624 38.984870120004764 9.715797531449295
98 32 0 9.15090358184043 38.0887712221392 9.376551261062756
99 33 0 43.51646690488182 38.1136034714554 20.811031685105856
100 33 1 43.29781912245355 37.45190602288046 20.07906942911002
101 33 0 42.729070466929855 36.734718710219816 20.635457096891272
102 34 0 1.6339073870297518 34.18915122038882 11.020526165640938
103 34 1 1.0885529595834251 34.72127615390595 10.354435971991544
104 34 0 0.6921554536341593 33.88711031848909 10.74830962758196
105 35 0 35.30253458148979 24.087418423545685 40.184149173183734
106 35 1 35.71731288189396 23.490752965409264 40.88575815821492
107 35 0 35.33242235299063 22.94866323728581 40.079310473419845
108 36 0 36.428564125821616 45.45917468799054 45.709733817335525
109 36 1 36.87318083344932 46.38045843748546 45.80571381573233
110 36 0 36.49403952832485 46.329189519442856 44.815868982199426
111 37 0 15.948422755528858 21.241684584088436 29.84041232183085
112 37 1 15.15636762558051 20.52849666756041 29.435475550824346
113 37 0 14.935330160843918 20.303529664112766 28.45178535906514
114 38 0 10.667277378208311 30.477096642454796 21.072070717470456
115 38 1 10.601813976003157 30.081379085201768 20.01884561162371
116 38 0 10.287909523068514 31.034918827470268 19.801178266463257
117 39 0 24.738899906799357 32.05480417563916 15.560496044921159
118 39 1 25.340614460958424 32.28340484894866 14.777294214283337
119 39 0 24.395471781151247 32.250895472772115 14.043672372633589
120 40 0 21.912254775170346 43.08429350936092 24.481552891560934
121 40 1 22.873410313760477 42.84596470483121 24.362111571029597
122 40 0 23.270983944307407 42.147716377654625 25.003314182884463
123 41 0 32.98955208712638 28.324369058452223 10.793126597107682
124 41 1 32.33136770948212 29.158742424895852 11.339432778233466
125 41 0 32.51819518787474 28.034526596966334 11.434536862283435
126 42 0 23.477209116948394 46.19761823126235 30.728665279302934
127 42 1 23.745691875694785 47.03040256435655 30.252809713265798
128 42 0 24.653080394814797 47.1772177306321 30.62988091487893
129 43 0 6.679507283783086 20.960103638555115 17.037262474180856
130 43 1 6.280446697182727 20.51651878697294 16.199746446650323
131 43 0 6.970824198094002 19.85090285000052 16.579067769009605
132 44 0 9.648438600649754 21.32389730101812 42.72875889548467
133 44 1 9.495765715969098 21.40695317188298 43.8026557927858
134 44 0 9.288975504679168 22.381303272792387 44.00331828107158
135 45 0 29.50672627029026 4.281346487929992 2.396404506133833
136 45 1 30.00814554685031 4.082986549070039 1.5814738044268202
137 45 0 30.007986314125606 5.071751613724882 1.3800662425948433
138 46 0 3.5544532413935785 9.025522551264098 28.59374393191401
139 46 1 3.361266937636447 9.232545482126621 29.5775511429081
140 46 0 3.54667256727406 10.295620763720384 29.931811531635635
141 47 0 43.434190886250846 7.237713040525742 38.739894328853104
142 47 1 44.18745173192654 6.4141958902084895 38.609574779433224
143 47 0 43.41591370901587 5.941281537647633 38.22939919546517
144 48 0 4.286696934749057 18.346046954384466 4.744749495590806
145 48 1 4.3064470705591225 17.70558620222182 3.9722416463181545
146 48 0 5.298337278858153 17.596638912855767 4.174164697557998
147 49 0 15.820274197955488 21.16468559548444 38.278797260719344
148 49 1 15.451934470735639 20.76011667531344 39.16153184535755
149 49 0 16.167269614107546 21.30693469134567 39.65118075079227
150 50 0 8.492880131846896 46.71312843666325 12.846959414710799
151 50 1 8.139759443344136 45.91906056439051 13.293640080022065
152 50 0 8.936354201020654 45.43906283752942 13.818507165120673
153 51 0 19.981990526980827 34.72684357403578 12.824070857661416
154 51 1 19.062114173662383 35.30426774124433 12.902553885433486
155 51 0 18.495366830450145 36.07117193986991 14.341965049272506
156 52 0 46.651766961626734 30.143917144759303 41.333207417208484
157 52 1 46.8424861018396 30.920706218787103 41.94813443826696
158 52 0 46.905275133189704 31.748857835027742 41.42608611007897
159 53 0 7.67336016157159 16.866080591302374 9.776736394868397
160 53 1 6.9254441592657034 16.129277631234274 9.64374659138846
161 53 0 7.166063810572633 15.48108466790226 10.373057453060705
162 54 0 15.97098197093911 31.678902554117734 31.15505213505876
163 54 1 15.724245315706195 31.011786735399575 30.39645515484882
164 54 0 15.629310190546143 29.735432820227995 30.536082984245823
165 55 0 11.524967317525222 26.528814683177906 17.520338999044405
166 55 1 11.197120768482641 27.38380062220472 17.84966114630806
167 55 0 11.612665109562812 27.339272185813577 18.75126484026865
168 56 0 6.216277310428292 15.155559603284884 23.700917744143
169 56 1 5.8784972304080485 14.24973166438164 23.360584316470653
170 56 0 5.608829377080144 13.93190491907197 24.24132830908639
171 57 0 14.424348233357573 15.167562377020964 34.5467318335626
172 57 1 14.217200167817548 14.210812003322303 34.27954996978247
173 57 0 14.742338761959127 14.62983648804687 33.491989213729944
174 58 0 14.065220661953534 28.908520624440012 45.27024421597161
175 58 1 13.71020502915139 28.903424313778267 46.28992701843073
176 58 0 12.898547942961832 28.58211237017798 45.61763435627445
177 59 0 15.063445578257385 11.681937807488564 29.937081367422266
178 59 1 14.130663164174118 10.64314895349366 29.734982013921076
179 59 0 14.07926992843094 10.534837006737062 30.685133415533684
180 60 0 38.318928086218065 38.003139720455216 5.627148613025121
181 60 1 41.44174542069884 36.21952997626922 5.51069611580131
182 60 0 38.18117651068429 37.50286614140337 6.726007101489243
183 61 0 16.557667171567203 18.063693794078365 36.433042726081176
184 61 1 15.670242437453059 17.422251281038854 35.97818077467444
185 61 0 15.244635314220332 17.714631791925008 35.094624507406046
186 62 0 10.027013837937355 48.366290359442736 41.79542715943375
187 62 1 9.084217533400851 48.111675722916814 41.94875650115298
188 62 0 9.356937335750896 47.40287944406465 41.30802111087046
189 63 0 44.79654153285171 6.989083141636735 12.12649790408117
190 63 1 44.548014804723415 6.480874410270615 11.25437147037664
191 63 0 43.887252541024054 7.245734691560859 11.037070697522346
192 64 0 39.845360725514645 11.33059698199697 31.08274432325068
193 64 1 40.959445532613735 10.603156627479725 31.35575763691212
194 64 0 40.78908730575992 9.704516549774642 31.800042289910685
195 65 0 5.2847843463368145 41.42454254594364 33.79303979770785
196 65 1 5.433207869434832 42.154704308492526 34.517352496576464
197 65 0 6.273694999151098 41.64227074387587 34.5746609889507
198 66 0 22.14563391993326 21.38944514837217 46.03184645476661
199 66 1 22.252435505893008 20.513386075907576 46.56663478441598
200 66 0 21.576432160406107 19.94342857646628 46.12113217747556
201 67 0 16.869208214195325 3.892582606212782 11.141123705343574
202 67 1 17.418255181843033 3.201915934653696 10.458797813066706
203 67 0 17.702136534421548 3.9749208714671123 11.156753444189288
204 68 0 24.85630842047321 37.75545147531967 46.115112388054214
205 68 1 24.91092901892596 38.573873285253214 47.23391347282043
206 68 0 24.398314664175633 38.30879757958321 46.05100301470731
207 69 0 46.11972669512671 41.943674132123014 37.23630978279964
208 69 1 45.970075833174626 42.79647930293768 36.74405649875293
209 69 0 44.706127169975055 43.03387233070104 36.597481972335274
210 70 0 23.07251292027605 35.665934461205694 45.631685570712015
211 70 1 23.934769972409743 35.747574915125114 46.105342841190385
212 70 0 23.814670693418577 34.7834068524272 45.81738842823983
213 71 0 46.58023096840227 22.598154371579163 21.778504914401623
214 71 1 46.46956037106587 21.999603552561627 20.973097178347594
215 71 0 45.45312096625181 22.125392441554194 21.028357576589407
216 72 0 31.006964212321655 11.433687283764744 10.977197425578098
217 72 1 30.553191491531887 11.197931914390074 10.139959256764794
218 72 0 31.059791194504495 10.392593485769268 10.375465936793187
219 73 0 19.630855333520135 40.41904016261114 9.978539326931633
220 73 1 19.932895924675563 40.5482958556936 9.000735029298095
221 73 0 19.81147831887055 39.57367220662315 8.937151501347586
222 74 0 23.49356758086327 32.00851362261427 8.474700947109568
223 74 1 23.240797720420293 32.26059616730332 7.524332826605865
224 74 0 23.84548123587528 31.52179810596844 6.848427133974855
225 75 0 8.017591076559908 18.640542971427003 20.135385725880173
226 75 1 7.642176860833907 19.366875105627575 20.919973003267376
227 75 0 7.786497545210088 18.894837885713002 21.80048394046627
228 76 0 34.860808724138 13.800958472087048 33.28368617195638
229 76 1 35.341939417215826 12.759674953139882 33.87460907673448
230 76 0 35.4796681601699 13.540215374859121 32.93408094520863
231 77 0 11.776217178570613 4.260732268835157 24.588108154502525
232 77 1 11.887717793290768 3.2813185444952584 24.688172131497264
233 77 0 12.824987976732938 3.405262136816987 24.319594164868736
234 78 0 5.700105957085261 12.120343912760887 5.283363195931971
235 78 1 5.963584727990112 12.845049312355727 4.656331711181665
236 78 0 5.807405007598703 13.83865905067683 4.857877284575875
237 79 0 10.20880967897259 12.842629151095535 22.415255330773164
238 79 1 9.789038745111455 11.9526092556291 22.646263260176575
239 79 0 10.34729093432304 11.833313094884758 23.460081708281315
240 80 0 43.7720945166434 23.03690500436967 40.28624514293544
241 80 1 43.86997872308326 22.785642733951352 41.285280179958384
242 80 0 43.649116679111856 23.71657357998581 41.60821300043212
243 81 0 18.83247909893494 14.7510629599807 24.037288624795842
244 81 1 18.46920677275932 14.195036376763746 24.747231932875923
245 81 0 17.76884545763453 14.887298278153084 25.01499488666612
246 82 0 42.63901845589898 0.9982649958837658 8.936990185496485
247 82 1 43.167079734367476 1.3264121787629097 9.663758335841589
248 82 0 41.98179363022549 1.6720948223948098 9.583440413230061
249 83 0 20.4432915314888 26.493179399249406 37.19944601385705
250 83 1 20.855998421305213 25.94974823555472 36.33571904716163
251 83 0 21.763826183669217 26.571259216719252 35.35455372676102
252 84 0 21.541066890273548 35.648831357057915 11.61678478798143
253 84 1 22.244803843397165 35.64672114179706 10.429501265989309
254 84 0 21.8411341750497 35.913208613297435 11.841811496075335
255 85 0 45.39345117596719 38.76702223960814 30.992867916364233
256 85 1 44.89405552048605 38.03371065691514 31.48273232467572
257 85 0 44.267990652021844 37.41471160643308 30.923523093820624
258 86 0 25.59234497572301 36.08665802386546 40.6118147613931
259 86 1 24.911917713642723 36.6497416616349 41.14250014332254
260 86 0 24.055190313302962 36.13530387643428 41.284860548467265
261 87 0 43.0435858875007 40.58686333103928 27.469818793413083
262 87 1 44.39248789094679 43.69397208326111 30.250704718868434
263 87 0 41.32718671683978 39.89723293634455 29.311502650455637
264 88 0 42.56419304575977 21.933953719206045 13.804995004182235
265 88 1 43.11138092776297 20.846322394584515 13.522762231620511
266 88 0 42.40983117820516 20.39875011810269 12.941047201111646
267 89 0 39.70632158032757 34.07684128042029 44.891449485563896
268 89 1 39.407262090237566 34.75679816966999 45.61768660137146
269 89 0 38.52837734831912 35.23685995619013 45.440430861605094
270 90 0 36.705026915288 16.47968368412356 18.679821241441253
271 90 1 35.13074686791369 44.3406912109281 15.386011130417959
272 90 0 40.844172545511015 16.77192681065883 19.635234994805806
273 91 0 17.859730910417742 6.972821025011328 8.218895165841568
274 91 1 17.889273698606452 6.15923459445028 8.79031653728874
275 91 0 18.89596071474318 6.220292126485075 9.142368360311956
276 92 0 11.403752428271746 32.24285366123224 31.496475009349563
277 92 1 10.707459319194925 33.03052600679182 31.876721678988837
278 92 0 11.425554903110562 33.17945446225149 32.5459519691955
279 93 0 23.30744765662844 28.94895032198254 26.669972883150425
280 93 1 24.0719264170054 33.318350565453365 30.484507665914435
281 93 0 23.675116375340295 29.009477112069334 26.694954570832614
282 94 0 26.34509038311244 42.22717310574606 37.44397746871027
283 94 1 25.48256295294978 42.68763131488374 37.05125915784817
284 94 0 24.536840188168892 42.436862437910044 37.369439449893854
285 95 0 11.18783898352607 16.52565578801072 43.5231430165973
286 95 1 10.70377345339569 17.254795745298235 43.99251506432969
287 95 0 11.49850755498547 17.590632456911315 43.4465613069579
288 96 0 15.79252135037425 41.63656710387367 22.78962632618745
289 96 1 15.363746799636488 40.68653690818033 22.537104861167858
290 96 0 15.229174612789222 40.51938517920216 20.327967142893108
291 97 0 30.766370117510693 3.1699561670719505 6.763374446352254
292 97 1 31.410272504890322 3.02145539419265 5.978225360774108
293 97 0 31.674680812772998 3.958816415110317 6.331480125246004
294 98 0 18.258111799902867 38.8837714257525 36.336075901867225
295 98 1 17.280103052634377 38.80836067952968 36.18132903809637
296 98 0 16.84598135667871 39.10571837159205 35.328839010436255
297 99 0 42.778564455865244 9.065214977142823 46.32818016323359
298 99 1 43.641243988989615 8.447661720091213 46.47502230343668
299 99 0 43.51394210958784 9.118725027582583 45.61797027701497
300 100 0 6.093427580484452 40.55765657322067 41.54485496145972
301 100 1 5.197577556575744 40.87889656149639 41.96427135204987
302 100 0 4.799696922657237 40.33455782528825 41.205825618257805
303 101 0 47.28909716550803 37.32125286495078 39.82221086810875
304 101 1 47.815296506357974 38.33316779597424 41.44058741824502
305 101 0 47.64204657622084 37.1474817821918 40.0457336311995
306 102 0 27.20149118030669 24.126785835015905 43.39260778347956
307 102 1 26.603773028558066 24.704336146390435 43.9427474705621
308 102 0 26.599213814100054 25.64019720333329 43.59872940406881
309 103 0 39.987834194474566 5.991436098776033 17.045415464246872
310 103 1 40.591673454841995 5.274726116931029 17.48318348645276
311 103 0 39.87062259453332 5.3941007349411665 18.188607548621903
312 104 0 39.560765146911535 13.295052326415107 9.788139096199208
313 104 1 43.69232479853195 14.060712751955203 11.03585950719675
314 104 0 39.51775241492724 16.750178489325666 14.981237496657878
315 105 0 34.96268924303272 38.735736624133885 11.626553067137875
316 105 1 35.943329916908766 38.72987521947615 11.3951303155807
317 105 0 36.38655334249176 37.80634366798236 11.475523955191994
318 106 0 22.996983368406852 38.3912669910581 39.9792829958869
319 106 1 23.537705785463118 39.323558726007846 40.418505546346736
320 106 0 23.479955431299754 39.70422865593973 39.49797232252204
321 107 0 26.158140818818588 35.06619187204861 6.684177856282699
322 107 1 26.40687934616232 35.95232330920544 6.282349218903721
323 107 0 27.387490593393856 36.11265208810342 6.354343254581857
324 108 0 21.502072876891297 16.665262291126123 29.483000452969588
325 108 1 22.55965336485011 15.26066829953625 31.366052448695772
326 108 0 21.21506236917211 16.686709262226213 29.557970395354456
327 109 0 44.78470545259919 25.711160747002438 41.24286283826169
328 109 1 44.66946331767089 24.848901719415398 41.75611883779958
329 109 0 43.92072480725223 24.509846129229825 41.21357683577179
330 110 0 21.98539167903902 35.07668604144871 4.0114006076619955
331 110 1 22.73431637537578 35.70298464503688 3.702379949191804
332 110 0 22.95045511549851 36.514731118142976 4.241593049268796
