ITEM: TIMESTEP
147
ITEM: NUMBER OF ATOMS
99
ITEM: BOX BOUNDS pp pp pp
0 50.0
0 50.0
0 50.0
ITEM: ATOMS id mol type x y z
0 0 0 27.172609092069873 23.772267803967434 32.27497218523461
1 0 1 26.959822478622183 23.238561851314152 33.05485463147423
2 0 0 26.700600645421492 23.6830050186022 33.89161665463415
3 1 0 26.756605622628108 44.35492376895788 7.360445724603291
4 1 1 26.80244737863471 43.64138609631666 6.689536948536647
5 1 0 26.513325856059087 42.67886663841884 6.830290523676106
6 2 0 39.15224250454601 25.6233433055401 35.88369755100629
7 2 1 38.585596003941816 25.080256281893046 36.505647765929645
8 2 0 37.66351646326432 24.939978143093455 36.23307865400368
9 3 0 13.577671633291635 18.857335626075802 23.827323442130865
10 3 1 12.966277222564626 18.2457637761851 24.285970931732983
11 3 0 13.362962789803058 17.514642040852458 24.782544758625118
12 4 0 33.81629809103053 18.459899073623554 24.605079788699967
13 4 1 33.94353323953915 17.877433379175667 23.839529033094447
14 4 0 34.02567894858129 16.961603785704398 24.120977857510283
15 5 0 17.64075235949072 18.85311881979146 25.534674831439467
16 5 1 17.131201042034952 19.485025703852614 26.058380117379134
17 5 0 17.069652075898766 20.36810968380519 25.64809934487974
18 6 0 12.76906562961152 21.473696576587955 15.25953157422146
19 6 1 12.286737340469307 21.521197232537194 14.446365604242557
20 6 0 11.667908383175476 20.8216422697185 14.593675837603408
21 7 0 36.63027099097969 6.893420683947486 39.09260460632699
22 7 1 37.17929998676582 7.555476371158815 39.593613606928606
23 7 0 37.008791881988984 8.551236403475782 39.63770140136382
24 8 0 5.96634010050511 15.113670070398296 8.700397180561762
25 8 1 5.237354006381258 14.603474707900302 8.247986351071848
26 8 0 5.2278278359785055 13.651757622315122 8.347464888555864
27 9 0 19.84398783333403 25.297614081610213 27.174977813052042
28 9 1 18.692102440685147 25.28791767069099 27.227428487262305
29 9 0 18.668167600647706 24.24996148705339 27.542350732222374
30 10 0 33.49859544278002 13.46492713829607 10.448061501466366
31 10 1 34.152440409446235 14.150310829424837 10.769567020219926
32 10 0 34.390377165289635 14.140637818794993 11.707995659036827
33 11 0 33.38305866510626 46.25444584249129 13.095454413404397
34 11 1 34.323971745601455 46.328037215259485 13.371289245966153
35 11 0 34.638532533543554 45.75122368609011 14.085040266428072
36 12 0 8.570914774569728 18.608205244409344 46.3947952679093
37 12 1 8.868906564172539 17.891858680706484 47.029983826830325
38 12 0 9.816781561940768 17.60883488467218 47.14665517358495
39 13 0 35.42416406704056 26.81818853147189 45.942032624015255
40 13 1 35.666047442432266 25.902479430328036 46.159762688437375
41 13 0 35.58021884524164 25.277337172231707 45.42817606406117
42 14 0 12.57434225306356 29.36845277522834 23.035453883465113
43 14 1 13.341453910954987 29.17514716879496 22.44959618378628
44 14 0 13.72102065933062 28.30152990924764 22.2137201235622
45 15 0 31.772499724591487 22.441471868010176 43.34129341832859
46 15 1 31.67948973496147 21.948623266216902 44.16583292323765
47 15 0 30.7541552158496 21.824421414401126 44.40966741668007
48 16 0 40.96938762823581 36.457009159663656 45.50220357639458
49 16 1 41.969896518830794 36.36365397384125 45.796747232369036
50 16 0 41.51187798097109 36.51538788090368 44.87291121568142
51 17 0 38.249266077392676 27.004062293244406 22.577387976580358
52 17 1 38.22625824131004 27.733917201602228 21.94323505059639
53 17 0 37.32357277647497 28.073779598927366 21.82331442668813
54 18 0 42.318114358304705 4.241439353018428 20.586493813872174
55 18 1 42.1051353188825 3.3792703738914907 20.124327748294633
56 18 0 41.25072554173618 2.9546376719608833 20.237323835640687
57 19 0 37.07455791007507 12.312257514970202 15.031120585063636
58 19 1 37.958334194488565 12.39306874852373 15.434399586562023
59 19 0 38.37803253974874 13.163794124138914 15.036761708356153
60 20 0 11.872017596989451 44.35013582521937 30.565229346238755
61 20 1 12.56459781085919 44.97234652789978 30.826936349840082
62 20 0 13.36929140078262 44.587937580265965 31.219564848960115
63 21 0 10.14661011631337 43.50562942361111 33.42134358735176
64 21 1 10.431916656051612 43.72660669538762 34.29843445779652
65 21 0 11.09938527025817 43.07398301932314 34.20556976108323
66 22 0 25.797639360673926 19.180916751336678 1.5204646275625513
67 22 1 25.849324129284508 18.855624567577244 2.50015757336368
68 22 0 25.72133253162924 18.39503236397111 1.6638573075551955
69 23 0 45.80789883536204 12.05886014693866 34.41840131674518
70 23 1 46.05712966812904 11.179693126945352 34.05293123280143
71 23 0 45.405772765038876 10.444451341645738 33.94195145172355
72 24 0 35.323915909874714 32.92576860473663 17.89311802586771
73 24 1 35.37923296674357 33.57811916027054 17.24113830957146
74 24 0 34.87178165470528 34.19859767755963 17.75032685931032
75 25 0 46.08368896128971 35.413072592563445 11.62117637214113
76 25 1 45.34652771709615 35.88185450854393 12.000856280311094
77 25 0 44.58130243981485 35.44778869534934 11.573499177868381
78 26 0 24.919265855290753 5.1718179090111525 36.64474535568673
79 26 1 25.82321306011933 4.957221150016967 37.39676280563427
80 26 0 26.86332961754622 5.449887194489553 37.728554667299896
81 27 0 26.24974202606516 11.80831736963002 9.90342697577049
82 27 1 26.881032665355242 11.091946823517521 10.113700665033155
83 27 0 27.1147348289378 10.92884813540908 11.05348728737672
84 28 0 8.852766971871954 27.9256770403062 29.896732002854414
85 28 1 8.449279586828474 27.431484655592442 29.153268679087653
86 28 0 9.023284334404726 26.966928317377548 28.494464445706804
87 29 0 30.9038398235909 35.12921424653497 17.13457674437741
88 29 1 31.591366111597 35.20686659080928 16.408594010191493
89 29 0 32.10299213947554 34.44201094709624 16.039695678367035
90 30 0 48.18399412238681 15.11082679527815 44.005923439184244
91 30 1 48.06890500925161 14.88971253059436 44.920015368070096
92 30 0 47.91778969843692 15.801143264741977 45.164855097799474
93 31 0 29.447655857090336 3.9622883497717325 18.73346661988022
94 31 1 29.12852342590034 3.5504140185998017 17.888189058191745
95 31 0 28.21519650265268 3.974190734210903 18.031346101395638
96 32 0 9.722992745096468 39.36874983346973 10.266083748611047
97 32 1 9.51581933255442 40.090973781112254 9.667275090403054
98 32 0 10.266381693490038 40.66990345644887 9.367684616324889
