ITEM: TIMESTEP
1493
ITEM: NUMBER OF ATOMS
99
ITEM: BOX BOUNDS pp pp pp
0 50.0
0 50.0
0 50.0
ITEM: ATOMS id mol type x y z
0 0 0 27.1569488507192 24.02808932978789 32.74151204134961
1 0 1 27.2590407356777 23.362328216165036 33.373153949346005
2 0 0 26.687525177470587 23.60945068268459 34.078461835745166
3 1 0 26.732349342256647 43.22650444597842 5.470434648760366
4 1 1 26.53814632968777 43.63161025892651 6.44842374622305
5 1 0 26.846455649171965 44.54878295819653 6.26842983819413
6 2 0 38.12290660618792 25.03712297068823 35.823738390026634
7 2 1 38.951513072801994 25.21381652561721 36.05570909663291
8 2 0 38.91159207388795 24.834145747965877 36.73783212532067
9 3 0 2.4926678352668388 14.385246783343794 20.047325662388015
10 3 1 3.2946130689766226 14.8400169289015 20.407319467780777
11 3 0 3.3830501308351213 14.852526220526569 21.408265511677484
12 4 0 33.777948339278105 18.34048667266127 24.751855127781806
13 4 1 33.80025636782918 17.724622997420145 24.0313645021273
14 4 0 34.00321275687077 16.827559594126903 24.35766636329843
15 5 0 25.88188380899548 16.61881743289757 28.15494061419713
16 5 1 25.713225430354182 16.825702883051253 29.121503751499304
17 5 0 26.316762309760485 16.3292658839336 29.656995694672446
18 6 0 12.98774864714204 21.96671896809059 14.43168429693612
19 6 1 12.335729850499492 21.567166815829523 13.955228776643457
20 6 0 11.733696426627645 21.00462548442617 14.339321826694647
21 7 0 36.51166956349418 8.139605875348263 39.29221665692347
22 7 1 37.08109190571284 7.3798516455844565 39.69388761771589
23 7 0 37.74706102823807 7.8964747566440066 40.30803478795092
24 8 0 5.307881729341128 15.341112498259996 8.182404299236852
25 8 1 5.102752529886667 14.44629058131658 8.121179868894357
26 8 0 5.8021282652316915 13.928128749795889 8.702663303599111
27 9 0 20.183058757551386 29.700764511779013 29.259260412439627
28 9 1 20.49256545265945 30.199033995283646 28.6755658617453
29 9 0 19.94340243352239 30.789800691837133 28.266618657242507
30 10 0 33.71976366645426 16.465741976517084 8.460933940565576
31 10 1 33.27198509102722 15.77074433181507 7.996813213885974
32 10 0 33.386669691837454 15.866209026233559 6.857701601831066
33 11 0 33.8211847372342 46.751575221306354 12.950129994240093
34 11 1 34.593010780754256 46.605596830045954 13.555364627115866
35 11 0 34.56294818188098 45.781136997815395 14.144533612322146
36 12 0 9.5400279640446 18.1789297504144 46.65730807716019
37 12 1 8.843878324324557 17.93016081216051 47.0088787864175
38 12 0 9.030382916893272 17.322686647832338 47.55936206562622
39 13 0 37.503614228520604 28.57863673317656 48.06116283872475
40 13 1 38.44942047183826 28.75093012845011 47.900309746656504
41 13 0 39.02893116854829 28.590478394440044 48.681212873013855
42 14 0 12.929381869640483 30.994522322846194 21.576492022371674
43 14 1 13.005617771498795 30.219462906103537 21.076074048035952
44 14 0 13.424965775945676 29.416678702200752 21.282970640653275
45 15 0 28.47247237027349 18.237654623639525 42.43581404584537
46 15 1 28.605739606570314 19.01691210963947 42.98869831616224
47 15 0 27.937010361834 19.08199859292785 43.6809388911925
48 16 0 41.84606284891437 36.72011369528865 44.82527632594255
49 16 1 41.95884747474431 36.59666755576952 45.796752339137335
50 16 0 42.93658386547162 36.57692111348567 45.76866060888913
51 17 0 37.620929443221264 25.130890609567693 24.384870493820184
52 17 1 38.41834607575182 25.54265770838498 23.99196198369763
53 17 0 38.15678935470815 26.200786421994565 23.345922651993153
54 18 0 43.06720306385764 3.3276991205793593 19.874526461960766
55 18 1 42.267220399570306 3.0278871606970426 20.27673236593609
56 18 0 41.735057048005004 3.597639344270019 20.72730909643999
57 19 0 39.6517084820728 10.992775510309084 17.94921087312413
58 19 1 40.46967399754268 11.498623373973638 17.983981178393577
59 19 0 40.54715217138664 12.155690992386873 17.205949114815223
60 20 0 19.385494750145167 48.562345945449565 19.49858062358138
61 20 1 19.84828917247663 49.29441610660263 19.02814555379497
62 20 0 20.82776602197374 49.32691034288989 19.14727197717667
63 21 0 2.486540101726115 40.05217797635028 46.24286991101629
64 21 1 3.16684529650705 39.42253030597768 46.00836933155974
65 21 0 3.2411524121209054 38.5878597625401 46.67853023392274
66 22 0 25.188939945031652 18.373705803990138 2.173327816536313
67 22 1 25.704307671944715 19.12609328685022 2.1083863145399055
68 22 0 26.733029449039535 18.682764085536167 2.1767738862435784
69 23 0 45.667284762549144 11.750949237270628 34.266662103349965
70 23 1 46.268448653498844 11.191598504734465 33.80749910392585
71 23 0 45.77433608780834 10.3839967225294 33.796870175616576
72 24 0 49.38241643786567 30.076008738555533 19.720525544674445
73 24 1 48.73868845307574 30.061265790270884 18.82290239700152
74 24 0 49.549666468089434 30.591879327535842 18.416839314752373
75 25 0 46.54103195263203 35.9844381896689 12.021377251623104
76 25 1 45.643465502666544 36.098916789036025 11.586159599870086
77 25 0 45.46016442360655 35.226280263650985 11.190673880752385
78 26 0 25.276715523769745 4.220617114816526 37.606969300258285
79 26 1 25.744105724204548 4.954533824285465 37.38815619376673
80 26 0 24.94318427225401 5.067836159860535 36.77496751851998
81 27 0 25.427412284990623 11.268686138129404 9.495123496286494
82 27 1 25.292912780184572 10.418626415161418 10.049525904829546
83 27 0 26.144187452151982 9.897291861523973 10.186322047293487
84 28 0 8.534856443642468 27.84497572726287 30.119299564648784
85 28 1 7.560940638824883 27.439325723313935 30.093512989755588
86 28 0 7.47804639133619 27.010487526404063 29.194198536487797
87 29 0 18.569873830569023 40.53028938470265 13.610479868017963
88 29 1 17.792708302556992 40.72417248010244 13.25217346053168
89 29 0 17.041621569290378 40.241192452309015 13.359181409902167
90 30 0 48.28712357320192 14.877746427643535 44.169723215606794
91 30 1 48.19013111699164 14.95057988518599 45.104163040168935
92 30 0 47.900570461807405 15.847394519816584 45.476183327393784
93 31 0 28.932113148648938 3.7164563127462773 18.708025853347362
94 31 1 29.035448072224288 3.276897508076888 18.099271700842138
95 31 0 28.15332220869152 3.303374897855176 17.723201292579507
96 32 0 10.28324016395473 39.66158579132502 10.147606978692998
97 32 1 9.465278474307567 40.089445270764166 9.651606993178005
98 32 0 9.78305625225766 40.80868269117503 9.162004893372039
