ITEM: TIMESTEP
167
ITEM: NUMBER OF ATOMS
99
ITEM: BOX BOUNDS pp pp pp
0 50.0
0 50.0
0 50.0
ITEM: ATOMS id mol type x y z
0 0 0 27.16557095707628 23.816651352141808 32.29490849343336
1 0 1 26.959701135321357 23.23385054139375 33.05692314128069
2 0 0 26.713576959994736 23.713988345768527 33.84444104214326
3 1 0 26.705954795160878 44.244440339839535 7.427891140412857
4 1 1 26.805075418502177 43.639092360295855 6.678090452928151
5 1 0 26.513955170281708 42.82529437494195 6.9375449140689724
6 2 0 39.0787225037669 25.60578734048742 35.8727096832443
7 2 1 38.592937480446146 25.08266145009753 36.5045925583382
8 2 0 37.631580679004514 24.921972266548778 36.246209911475624
9 3 0 13.535898480132463 18.81688453995393 23.827305324575214
10 3 1 12.907489658109604 18.228271097292957 24.260715476598484
11 3 0 13.346061470855908 17.50776045605678 24.766771071381942
12 4 0 33.81688013164727 18.44971259880353 24.61182434535663
13 4 1 33.94316592787023 17.8791616134475 23.839076548161476
14 4 0 34.02746762640216 16.940642158644774 24.12819111777634
15 5 0 17.671943949496875 18.8403164072147 25.515816450562337
16 5 1 17.185598651914844 19.490633795689114 26.083711159837257
17 5 0 17.096949919196614 20.350323344418424 25.638137906989073
18 6 0 12.684852255631135 21.336965029537165 15.34475199719552
19 6 1 12.289072998702965 21.533626203511904 14.429652500268555
20 6 0 11.71404836209789 20.76096832247436 14.7597134380702
21 7 0 36.5837408974829 7.0515160733015545 39.085794039781945
22 7 1 37.18828935200332 7.5537482799386 39.600104807742014
23 7 0 36.90960751821009 8.41704825073813 39.54488173738456
24 8 0 5.942622244043978 15.036809272173908 8.692359224425559
25 8 1 5.237798757018132 14.61115620077801 8.247374492563198
26 8 0 5.24070382403857 13.602381168613938 8.361956643824449
27 9 0 19.20699940402056 24.55627093071678 27.479250263451505
28 9 1 18.766163643219034 25.28624410299941 27.230260799505324
29 9 0 18.222616576453827 25.241227440493414 27.265495491536907
30 10 0 33.525611720959816 13.478026594570194 10.511515417908054
31 10 1 34.145238702351406 14.153993494603283 10.754253172269824
32 10 0 34.39748224397059 14.148764716513915 11.731316600559362
33 11 0 33.40070819157102 46.22442713932497 13.13340268205162
34 11 1 34.32515052252635 46.331829398559755 13.368542482748314
35 11 0 34.60956412942773 45.730692836420914 14.095641003011886
36 12 0 8.682867042481671 18.569413933964572 46.41370093000413
37 12 1 8.863549008725233 17.889558575986687 47.03306689568634
38 12 0 9.790189431550385 17.684266659094337 47.079002846269944
39 13 0 35.42214041625921 26.81636162735681 45.92637777249342
40 13 1 35.67753808284048 25.913432056713493 46.16804455641505
41 13 0 35.5829114986357 25.289802261726724 45.41816789028644
42 14 0 12.597282671165303 29.15832126459576 23.031395674200837
43 14 1 13.349795921010676 29.1939022594946 22.438412613010552
44 14 0 13.554708445007481 28.256387756967353 22.3457352078123
45 15 0 31.757213274822583 22.440713664373423 43.335665770354055
46 15 1 31.669520202000655 21.936675734653157 44.16139206417065
47 15 0 30.73465591774323 21.82700334481008 44.402584669385966
48 16 0 40.92701184169672 36.39416960280407 45.97219798377743
49 16 1 41.94340061247176 36.36827018804464 45.77584407325414
50 16 0 41.980754949888784 36.509111310580195 44.73818459086299
51 17 0 38.244187787345865 26.9888522099122 22.59183342502903
52 17 1 38.228630709771046 27.733570998265495 21.943460618684895
53 17 0 37.314463981282856 28.064068862319427 21.83371550096079
54 18 0 42.24314948531532 4.176841793295686 20.578945808632916
55 18 1 42.113098349998786 3.381249553335125 20.122630323022776
56 18 0 41.20422766333996 2.9800523486321553 20.2751152045755
57 19 0 37.09115229432033 12.321025677067839 15.034453373947168
58 19 1 37.963977571718765 12.38821082220785 15.443208431772394
59 19 0 38.40880280551065 13.175548784006244 15.04420796436693
60 20 0 11.911497299756531 44.36279757481264 30.518440307757977
61 20 1 12.616481905767166 45.00339225941161 30.744334336283302
62 20 0 13.37211742571355 44.59160163778991 31.181070271860275
63 21 0 10.182277294512646 43.43618232711742 33.41287776797196
64 21 1 10.37324385584554 43.702168425988226 34.39090731978164
65 21 0 11.129748421951373 43.02344582881562 34.14231667509394
66 22 0 25.8515896328858 19.475262678799353 1.7036471808223692
67 22 1 25.845540485994867 18.86856158584097 2.4575736679917335
68 22 0 25.72533143779868 17.89985692162517 2.1538450148728763
69 23 0 45.7360895445776 12.00370392818702 34.415132112439004
70 23 1 46.06406334453733 11.177944085740242 34.050394486701116
71 23 0 45.372840385555335 10.527327956923639 33.97842104140351
72 24 0 35.25941606040917 32.888744824139245 18.043117485765773
73 24 1 35.48221694626794 33.54525672587628 17.246712634929786
74 24 0 34.924313195394525 34.10988585501827 17.883260778017714
75 25 0 46.14220525722212 35.425928091106265 11.635685732146808
76 25 1 45.34154748628048 35.880329688069935 11.998902646848821
77 25 0 44.61016024505753 35.46063246123393 11.586338888455783
78 26 0 25.32360542135985 5.089306890479233 36.97144679897212
79 26 1 25.826722454166365 4.9760930916286 37.38554512245293
80 26 0 26.398095214556847 5.2282843602069615 37.58109781973948
81 27 0 26.24834264983699 11.813818165833023 9.945819328104545
82 27 1 26.879960487382803 11.087936726859692 10.110863797131323
83 27 0 27.081320748750766 10.965919878018411 11.049685523372423
84 28 0 8.893533755595897 27.909860477638073 29.875652558732774
85 28 1 8.44297926705553 27.430403695675192 29.153329071375467
86 28 0 9.04878252760927 27.001717274777878 28.547788925945166
87 29 0 30.977400116514527 34.96022336650911 17.067891960845618
88 29 1 31.498066274289496 35.26106500220651 16.380424005844542
89 29 0 31.861190083330886 34.4264899210021 16.160116534608843
90 30 0 48.16867486416685 15.258687019684926 43.98582011769076
91 30 1 48.06941118142347 14.876308483625811 44.92937552764077
92 30 0 47.92853020260832 15.869108423761503 45.04107616476143
93 31 0 29.616648773450354 3.8279240359534334 18.61772007462466
94 31 1 29.11191960948379 3.563322477072408 17.900490166597347
95 31 0 28.308035253110376 3.8925381668433396 17.95575356133456
96 32 0 9.747813072403428 39.342574762619876 10.291191514138664
97 32 1 9.514453815562934 40.09614573661664 9.663007331271446
98 32 0 10.262653355796127 40.613997324874205 9.410146368784428
