ITEM: TIMESTEP
170
ITEM: NUMBER OF ATOMS
99
ITEM: BOX BOUNDS pp pp pp
0 50.0
0 50.0
0 50.0
ITEM: ATOMS id mol type x y z
0 0 0 27.159472404547884 23.782019575243428 32.31938445891725
1 0 1 26.960339052141226 23.23628177514432 33.05470854017955
2 0 0 26.710186716024378 23.70971744388449 33.8564481527006
3 1 0 26.749951764261215 44.31099998197786 7.346267155555908
4 1 1 26.802847682489542 43.643246619618004 6.6875149739215995
5 1 0 26.50417759682914 42.69213234273698 6.86686717658245
6 2 0 39.04402144346598 25.593514867276376 35.874523328906825
7 2 1 38.587588926880706 25.08190717574018 36.502733642132476
8 2 0 37.754002645409315 24.94683459413079 36.271507463072915
9 3 0 13.513213517364669 18.80596768696707 23.830858768699763
10 3 1 12.900181591760473 18.22311984921239 24.257649408818516
11 3 0 13.310007092957026 17.54356558924841 24.738496396641736
12 4 0 33.82056138810144 18.434517305933465 24.587123345210806
13 4 1 33.9431894118379 17.87658743175144 23.842030623733173
14 4 0 34.022784115017856 16.996399598120956 24.10682689232923
15 5 0 17.63812011976903 18.886829439093074 25.560199607098514
16 5 1 17.197527727624312 19.490680507339878 26.08384706080281
17 5 0 17.103039330102185 20.31275101753987 25.657647499747487
18 6 0 12.785885750728752 21.49435712612264 15.252727901460407
19 6 1 12.286448283193383 21.519861082621777 14.44708014132052
20 6 0 11.654886329455232 20.824079979408012 14.5700089124158
21 7 0 36.63390406085996 6.928499849568452 39.10111725661252
22 7 1 37.180510889982216 7.554053247180462 39.59467925971063
23 7 0 36.983562996159435 8.534516399688181 39.61712277856901
24 8 0 5.9673393519911 15.044915550201045 8.708719681154056
25 8 1 5.236577339959404 14.603409171955098 8.247373551909172
26 8 0 5.234863640246645 13.717631743483837 8.345015104626173
27 9 0 18.88534548696737 24.06583941692966 27.665375722409077
28 9 1 18.816755058210013 25.310760043157764 27.219774177505858
29 9 0 17.753049861421736 25.37923445171715 27.26009878960812
30 10 0 33.52963051944756 13.47727264398494 10.529146094865219
31 10 1 34.146076554790554 14.154964007490285 10.758668037057319
32 10 0 34.3656439829403 14.148279127473637 11.614861934592717
33 11 0 33.41123131670364 46.22956334051153 13.132083912706433
34 11 1 34.32507982784205 46.32921400208106 13.371348026779694
35 11 0 34.60152027917574 45.76921161145018 14.052893115237781
36 12 0 8.625152976912833 18.585181550388267 46.40799656508268
37 12 1 8.867710196303827 17.891044058478418 47.030980508989984
38 12 0 9.781260046120835 17.644702520524206 47.11819343909542
39 13 0 35.42810591813011 26.7940096614332 45.93008846566045
40 13 1 35.67889485184448 25.914958512539826 46.16685320400836
41 13 0 35.588057436047656 25.320795923545344 45.45253494003703
42 14 0 12.575855766689685 29.346971967295588 23.034300668657934
43 14 1 13.342153334094963 29.179946260351276 22.44483274689437
44 14 0 13.696651216589803 28.2990257187064 22.23101030194096
45 15 0 31.75048309546673 22.426459386742707 43.3580703292728
46 15 1 31.666323510580884 21.93518114613413 44.15965234218344
47 15 0 30.757967261765806 21.83148816607436 44.393121952279635
48 16 0 41.01280792219484 36.427037122490255 45.701100991744944
49 16 1 41.95421459628349 36.36667421769118 45.78373240504838
50 16 0 41.7223939688999 36.502627304738596 44.88321421390864
51 17 0 38.24862343708642 27.041380929281114 22.545040305282114
52 17 1 38.22537579412828 27.730918350011873 21.946488980770383
53 17 0 37.36636272630818 28.048497734411026 21.837174541015717
54 18 0 42.2653560468328 4.227406850955587 20.60165220176656
55 18 1 42.10632847568243 3.3769824391863397 20.123053319715765
56 18 0 41.29140144691885 2.9964176073682114 20.24619218451046
57 19 0 37.121209325346975 12.308468672033655 15.060820415498993
58 19 1 37.96464867441155 12.392397882072359 15.440523972264744
59 19 0 38.39252704143731 13.110924867278682 15.087811471635936
60 20 0 11.945468892572523 44.395428041059525 30.51950452955506
61 20 1 12.624438349431461 45.006396839785246 30.729578462265305
62 20 0 13.363594855905038 44.600748869040615 31.169758287749833
63 21 0 10.069627490938446 43.53992287935917 33.50055381056529
64 21 1 10.372264081362406 43.68512593936869 34.390586898111664
65 21 0 11.105271869286836 43.102902204381245 34.30627548739607
66 22 0 25.80405283174958 19.10689175948185 1.5880247619351449
67 22 1 25.84721863147484 18.870066630016474 2.4789123879503316
68 22 0 25.7455545545108 18.245249902615974 1.9265864965778443
69 23 0 45.785238983281346 12.018566008325873 34.409190432373116
70 23 1 46.05943969435088 11.179490357676531 34.05192331045031
71 23 0 45.39877646940737 10.48767831735211 33.9585818084926
72 24 0 35.37155276910448 32.835955819299286 17.882193454345884
73 24 1 35.48870781645888 33.53506198431413 17.269703717745944
74 24 0 34.994469508850706 34.211862805328586 17.74122627320479
75 25 0 46.09396223196897 35.465259929193806 11.668217136973428
76 25 1 45.346246368850714 35.878196375138245 11.997187889959616
77 25 0 44.58459761953974 35.45566761408167 11.580542931591856
78 26 0 25.067682433899446 5.45239299634278 36.54036925714254
79 26 1 25.81549028742557 4.923953630796701 37.41575982014915
80 26 0 26.83288536342239 5.699043225248212 37.52869763506601
81 27 0 26.277104847177988 11.779347536131297 9.942939108115501
82 27 1 26.877613966887726 11.090055890061103 10.112830131181182
83 27 0 27.080817451782067 10.962624213126968 11.019891909313655
84 28 0 8.85553137691218 27.892056621515653 29.848037697172657
85 28 1 8.446147031782937 27.43154120806669 29.155471899873508
86 28 0 9.02993640957818 27.001618717746553 28.547048228400026
87 29 0 30.853223595259564 35.14266276363884 17.16482067284256
88 29 1 31.480948752970562 35.252667656080725 16.3807946183738
89 29 0 31.96857480358692 34.4979385619814 15.987884457748203
90 30 0 48.190139350761314 15.08112525269577 43.990005252996866
91 30 1 48.06913075450333 14.891909259970095 44.91901468538865
92 30 0 47.912181372755406 15.797300834122453 45.203715001487645
93 31 0 29.56059994399562 3.8869150273829756 18.67907724246471
94 31 1 29.120410229941733 3.553059495945494 17.889327206926243
95 31 0 28.227550275599903 3.99606104188389 18.073982573967573
96 32 0 9.717753899931914 39.41939104217271 10.225922080581887
97 32 1 9.515497964880844 40.091070832980215 9.667133502312529
98 32 0 10.27587097621588 40.61849921690804 9.40926935544789
