ITEM: TIMESTEP
232
ITEM: NUMBER OF ATOMS
99
ITEM: BOX BOUNDS pp pp pp
0 50.0
0 50.0
0 50.0
ITEM: ATOMS id mol type x y z
0 0 0 27.163018985728698 23.802359391374814 32.30782650897738
1 0 1 26.961200941102064 23.234420255643766 33.05752304302802
2 0 0 26.711936476863812 23.71909471783059 33.85051477755667
3 1 0 26.703570181713193 44.20643247953508 7.403469141168785
4 1 1 26.804044389037152 43.64236519558305 6.67439604857647
5 1 0 26.494463068307926 42.80740917538487 6.980315983275516
6 2 0 39.00824701320107 25.614877906187104 35.81629320030662
7 2 1 38.59819956095676 25.085645392199456 36.49760822928143
8 2 0 37.67548841944673 24.879146528400273 36.34369582444446
9 3 0 13.26716826355892 18.76723969207152 23.741070764135014
10 3 1 12.662139234900067 18.14210617573484 24.154252037846632
11 3 0 13.106436770233609 17.482170224024532 24.697912504016347
12 4 0 33.817524612499895 18.44034104213564 24.61426115919581
13 4 1 33.94212494048491 17.877732590709893 23.841774341737164
14 4 0 34.02658580587293 16.956034476789714 24.114890738193832
15 5 0 17.736746007072107 18.815322746278976 25.575245438742336
16 5 1 17.433722592486788 19.50520008517401 26.178906344364748
17 5 0 17.16051197881308 20.300450940699438 25.706740766034073
18 6 0 12.716377806465353 21.377126534620224 15.330025743559839
19 6 1 12.288229038540482 21.531205256836248 14.428235553612813
20 6 0 11.692875225162457 20.766753156838927 14.71923436886115
21 7 0 36.585045139692646 7.080844714313111 39.091696011545096
22 7 1 37.19010161667211 7.5507184512065555 39.60272274879831
23 7 0 36.87024153553789 8.418183835182257 39.5174426778423
24 8 0 5.969454507701886 15.02292848165888 8.7124679751208
25 8 1 5.2370958080331365 14.60809932143479 8.246907091707511
26 8 0 5.207173541760141 13.649118638782065 8.333249240414046
27 9 0 19.317960207566372 24.51894932956627 27.629610220642036
28 9 1 18.815403255090406 25.348440185928606 27.213889411429296
29 9 0 17.810875470037615 25.364762439184524 27.724186504158105
30 10 0 33.510845783447344 13.458663467388806 10.526361981186788
31 10 1 34.121418929704255 14.173725585405979 10.713082628556515
32 10 0 34.41364222927461 14.233831769297106 11.62566179686759
33 11 0 33.40082538253874 46.22257219233804 13.13691574555152
34 11 1 34.32698576839479 46.33375171628257 13.370753867646881
35 11 0 34.61650319832273 45.7504659018733 14.078906391107886
36 12 0 8.694837027838155 18.572129064884383 46.409213972608086
37 12 1 8.863498504462868 17.88960770737399 47.03313481561225
38 12 0 9.777290742722883 17.679989093277513 47.08520528719205
39 13 0 35.432334354493356 26.848082161752004 45.94750282870104
40 13 1 35.72810983902261 25.96388488927171 46.19449674115325
41 13 0 35.630929265268975 25.32504289538254 45.477717860864914
42 14 0 12.605982278532133 29.092416097493057 23.02759473656904
43 14 1 13.351272844702045 29.2114597168927 22.419739491169928
44 14 0 13.475699668335206 28.255192616704104 22.40459911024202
45 15 0 31.724341130230226 22.416250268347447 43.34105328410836
46 15 1 31.6172098075667 21.882829995428942 44.136978120325914
47 15 0 30.69019656950214 21.822106442490462 44.394812617882025
48 16 0 41.05223549188299 36.3345162096543 46.36409203099521
49 16 1 41.91370330703826 36.37499548522548 45.748563917241135
50 16 0 42.34308392475714 36.48407096594399 44.78669654322259
51 17 0 38.25573254225311 26.99558899093303 22.584381957229976
52 17 1 38.234000177620324 27.724482823327648 21.952224064639346
53 17 0 37.332681036547804 28.049617117932275 21.843372992382484
54 18 0 42.235064680498105 4.201633796647619 20.59987828881696
55 18 1 42.11253204859492 3.3772028943272803 20.123343655918582
56 18 0 41.250007933147565 2.9837256499608777 20.257651300518532
57 19 0 37.13903729964073 12.326998479847168 15.062707823254588
58 19 1 37.99918411244149 12.373590941394163 15.482611223627337
59 19 0 38.44965011523728 13.132714994834094 15.103458267180613
60 20 0 12.046158658422012 44.57878824699429 30.278957155220095
61 20 1 12.837983427168869 45.11842258953071 30.388911471572538
62 20 0 13.464826458799536 44.75466973105386 31.02468366342295
63 21 0 9.939492697287127 43.54985554869853 33.73242531129998
64 21 1 10.155983597788335 43.547603154690584 34.72944789330459
65 21 0 11.075936625228513 43.17318114186728 34.493239627961046
66 22 0 25.796348158494848 19.370627940978004 1.7937691520749919
67 22 1 25.845398094310347 18.865756287780133 2.433558829895882
68 22 0 25.770318566414634 18.079174474783397 2.4085223930080533
69 23 0 45.736554029861665 11.993130925010925 34.41067748717596
70 23 1 46.06616009670812 11.178086444161558 34.04827123961766
71 23 0 45.368649908659016 10.534349457995267 33.98130272305955
72 24 0 35.36200544060875 32.71684826929897 17.954118898846634
73 24 1 35.890792123204285 33.38318201306646 17.353310561001038
74 24 0 35.319174038828805 34.08551109416786 17.845270703944283
75 25 0 46.147288724669714 35.473171437015196 11.677890079650442
76 25 1 45.34174289434497 35.88058441212972 11.997513617798884
77 25 0 44.63932684139732 35.415781105463644 11.547207701890281
78 26 0 25.414711681565006 5.3235946427382235 36.862639562936934
79 26 1 25.817724038178422 4.948091515639966 37.400192304440914
80 26 0 26.428134444104252 5.431607200019559 37.454404107364255
81 27 0 26.25258204191076 11.802266258043742 9.940121496768647
82 27 1 26.864536273380736 11.08218189571545 10.10982695991238
83 27 0 27.07366500040996 10.96537505070402 11.039509301967186
84 28 0 8.865600473281079 27.906504465940575 29.87188727583226
85 28 1 8.434787218079986 27.430856520541614 29.162845170930876
86 28 0 9.04238910262095 27.005687007963186 28.558643037058264
87 29 0 30.850803773366273 35.012483241394946 17.097731256468812
88 29 1 31.083281596724927 35.4309291121194 16.277713738357757
89 29 0 31.466398237747807 34.60198954079366 16.07035737840425
90 30 0 48.183148028229546 15.172005019488973 43.9607528717087
91 30 1 48.07049237743014 14.883126412380726 44.92606333896073
92 30 0 47.91369472619157 15.853250406800175 45.14743519176461
93 31 0 29.80496444113439 3.649579784926793 18.4441559263915
94 31 1 29.093799639718874 3.563008451456733 17.895997139384995
95 31 0 28.39124514846238 4.030289215733499 18.227574457007535
96 32 0 9.702217393278413 39.365571503085526 10.26443992987729
97 32 1 9.51530818116477 40.09522879771008 9.663870048866729
98 32 0 10.29093217295176 40.60889625003224 9.419649490701206
