ITEM: TIMESTEP
236
ITEM: NUMBER OF ATOMS
99
ITEM: BOX BOUNDS pp pp pp
0 50.0
0 50.0
0 50.0
ITEM: ATOMS id mol type x y z
0 0 0 27.15428269399634 23.832276137143324 32.33432573887627
1 0 1 26.96148422232968 23.230554446701387 33.057463535088466
2 0 0 26.717737148604883 23.751029679404002 33.827255736344924
3 1 0 26.74911862631004 44.36229057666787 7.38319075009373
4 1 1 26.800124412135975 43.6389490221654 6.682922519694852
5 1 0 26.5085826091492 42.70593722182881 6.8609204269078115
6 2 0 38.930007565257206 25.61467340420822 35.77352239307968
7 2 1 38.60257990795356 25.08281672666075 36.50447865099347
8 2 0 37.688213703048476 24.925720233894936 36.27093672895769
9 3 0 13.277404290189757 18.736295796935657 23.759183125025366
10 3 1 12.63963161464373 18.135728930241438 24.14580261541748
11 3 0 13.126772785095293 17.506903658386683 24.677161694491165
12 4 0 33.818976920960765 18.42981994833457 24.610905590511134
13 4 1 33.94206008321667 17.877478911522594 23.841957589464688
14 4 0 34.02482592081944 16.96927406531207 24.117881129438732
15 5 0 17.72942919029474 18.842754986427302 25.564115874933602
16 5 1 17.45228464777789 19.505608247958854 26.188063732614943
17 5 0 17.174041950576818 20.271220423272656 25.692830391766716
18 6 0 12.835060659977582 21.579548822857152 15.192810514112677
19 6 1 12.284722949936738 21.51265089152593 14.451845435676379
20 6 0 11.630055399966126 20.861787320215292 14.472487457886533
21 7 0 36.625677740660635 6.867048740064078 39.08536421653999
22 7 1 37.17976411104451 7.555684136552921 39.59628998677241
23 7 0 36.99428856735306 8.551096163966456 39.62831682165623
24 8 0 5.981326050684769 14.965643395363118 8.727161629538994
25 8 1 5.233007165016381 14.610677999909822 8.243734750957676
26 8 0 5.259292382592756 13.66386757922818 8.368033076328695
27 9 0 19.061345369462135 24.58020226408015 27.59469885491463
28 9 1 18.81648764928188 25.34595686569056 27.2296201994864
29 9 0 18.088428353916257 25.429790961310562 27.534837216425544
30 10 0 33.518641180267316 13.440652730560556 10.607609391177709
31 10 1 34.122418802802805 14.180962911470743 10.704017798479915
32 10 0 34.360370883772546 14.166080429820944 11.630672194117283
33 11 0 33.40294559210275 46.191105147456256 13.170136984582799
34 11 1 34.329837203590536 46.33679667904664 13.368978461579024
35 11 0 34.57166514034661 45.73708013765068 14.075855298592613
36 12 0 8.680362725530944 18.603216760034847 46.38189679936801
37 12 1 8.861735216151533 17.88856975005005 47.03441930983488
38 12 0 9.819839508256653 17.665446939621923 47.092193340659634
39 13 0 35.426413554861604 26.825688808546538 45.9135493840128
40 13 1 35.73341292758163 25.96695085487157 46.199802741908314
41 13 0 35.619562748564086 25.36650662778082 45.466142668511836
42 14 0 12.576047938767006 29.461067076829373 23.01851927053269
43 14 1 13.335335245310338 29.18575722210499 22.433554661706353
44 14 0 13.756935903162685 28.31470449518007 22.173311878861792
45 15 0 31.696360832887247 22.413217358103278 43.348187067330684
46 15 1 31.614568879599016 21.87777160500722 44.136012734046794
47 15 0 30.689145426104904 21.83661716725694 44.37256456572486
48 16 0 40.97476212874456 36.43255815004381 45.66970051977727
49 16 1 41.96291756294579 36.36733931567831 45.787802570117
50 16 0 41.63411804665989 36.510355690589925 44.85358088949791
51 17 0 38.24299894699516 27.006534142796685 22.577343479603915
52 17 1 38.23486735355676 27.72383945584703 21.9527673845556
53 17 0 37.3408232423403 28.03630987293109 21.853446222143756
54 18 0 42.20465713751306 4.19925968241554 20.612101553531016
55 18 1 42.115353882443486 3.3755150646012377 20.12123412259969
56 18 0 41.237544751225755 3.010211943093026 20.28036667154239
57 19 0 37.129702362566725 12.28793484154796 15.090195778205343
58 19 1 38.000568690086936 12.375486385056714 15.482486752212832
59 19 0 38.48796974386117 13.120229310162268 15.134215308432347
60 20 0 12.081581577894918 44.57073956964258 30.296911482604585
61 20 1 12.854843907188418 45.1301828454218 30.36086950681869
62 20 0 13.433177189317021 44.73560695844465 31.014208885739816
63 21 0 9.806895418090194 43.59977614418942 33.90447524970821
64 21 1 10.152297462233792 43.53180259420868 34.73383546177214
65 21 0 10.9938619304975 43.215804219643 34.69253736621348
66 22 0 25.69634301061509 19.069682423158874 1.3242225629129787
67 22 1 25.858072188099154 18.897581014152365 2.4987044331297246
68 22 0 25.66653833569089 17.87329882925449 1.8325991403466257
69 23 0 45.750169905510155 12.021691475616127 34.41758143635167
70 23 1 46.0654753945426 11.178185118357547 34.04832621460387
71 23 0 45.36836064065966 10.50410871752359 33.970693145059876
72 24 0 35.57716267739217 32.630469403264556 17.757140550623173
73 24 1 35.89486697317326 33.371388278026934 17.384662489115957
74 24 0 35.54658812544858 34.16040426481497 17.653228815560023
75 25 0 46.187507058537754 35.51222468917919 11.714721517420099
76 25 1 45.34260279395545 35.87628689507775 11.99360764889366
77 25 0 44.588348513804036 35.44601713820764 11.571324219601397
78 26 0 25.160428515129958 5.477013488019866 36.58378876481992
79 26 1 25.8131840090446 4.926239568359478 37.4130040455924
80 26 0 26.753242782501815 5.626990881884657 37.528175941925234
81 27 0 26.25296804699747 11.808655298953903 9.98742195237394
82 27 1 26.865113605862433 11.078976216737958 10.106279233643948
83 27 0 27.044141592824623 11.001978582577738 11.04640708553348
84 28 0 8.90712752040902 27.89658323785733 29.858658433590495
85 28 1 8.429146120138798 27.43065024580172 29.16311063863311
86 28 0 9.078011897030692 27.01952166774625 28.580264849420946
87 29 0 30.654196757511748 35.38097081734294 17.231395302615844
88 29 1 31.05679064742079 35.41225474657971 16.286903771648294
89 29 0 31.569170851336423 34.74535500693281 15.666753549339372
90 30 0 48.197948575813506 14.986311780091674 44.01725115630175
91 30 1 48.069988659553275 14.902806177839611 44.91389518446506
92 30 0 47.90830027033921 15.724587932735034 45.287877407611546
93 31 0 29.864099960749588 3.6878380463577165 18.538671384078242
94 31 1 29.09170734995544 3.555525630235936 17.88348871162172
95 31 0 28.364125889148273 4.1081296517521295 18.33529068322321
96 32 0 9.757849704574816 39.39043562628808 10.256178290332276
97 32 1 9.5101942281092 40.096104000822095 9.662186054498614
98 32 0 10.316832548312167 40.570285334334685 9.45458062192103
