ITEM: TIMESTEP
242
ITEM: NUMBER OF ATOMS
99
ITEM: BOX BOUNDS pp pp pp
0 50.0
0 50.0
0 50.0
ITEM: ATOMS id mol type x y z
0 0 0 27.154015351655342 23.795183949605136 32.33977541906953
1 0 1 26.961718463007212 23.234654240617193 33.05689296153367
2 0 0 26.716640620398717 23.722523869874724 33.83434666616301
3 1 0 26.687747702237345 44.16135000935419 7.416837528673239
4 1 1 26.805207991435605 43.64507735589011 6.671063817908599
5 1 0 26.4840727589585 42.808420714787665 7.012171020747742
6 2 0 38.99137901768923 25.5834231935113 35.86052593122172
7 2 1 38.59416848586155 25.086899108929142 36.49231067542335
8 2 0 37.768228212025406 24.893304894954657 36.370283119855415
9 3 0 13.203874603704927 18.738281199382623 23.738866179160382
10 3 1 12.61863105612014 18.125659662916384 24.135392523587512
11 3 0 13.051213622048559 17.50663225928454 24.661233361301974
12 4 0 33.82135370988403 18.423619870366128 24.589024203939037
13 4 1 33.94191043711186 17.876000898364765 23.84456044669787
14 4 0 34.02284000413311 16.9971264277871 24.101937876802282
15 5 0 17.734190578188333 18.848952096295633 25.623552294897678
16 5 1 17.479212491784896 19.50643175235266 26.191991223073998
17 5 0 17.18441572918576 20.25710247502671 25.74908447503511
18 6 0 12.760668415510674 21.473129800316354 15.246408344304992
19 6 1 12.286248254871497 21.52140749965962 14.439901265275362
20 6 0 11.679698248649242 20.828977526197093 14.600756060847534
21 7 0 36.55890512487645 7.115378278095728 39.07868208328411
22 7 1 37.19380070935877 7.548122102531576 39.60530774464425
23 7 0 36.83540316033371 8.421626091441821 39.49312397339101
24 8 0 5.956417730483021 15.016397135149274 8.704046456255826
25 8 1 5.2371842815313165 14.603853765214014 8.247381037822153
26 8 0 5.21524068051719 13.720399741540557 8.33090156767036
27 9 0 18.746071892046206 24.21041179744347 27.598664987937735
28 9 1 18.854231938648788 25.35155061719348 27.246951303267558
29 9 0 17.856667832808327 25.838985308052326 27.29433878876038
30 10 0 33.53696617716818 13.494310046619752 10.522272931414502
31 10 1 34.116873431512964 14.175971519551029 10.709861160681712
32 10 0 34.387075445353425 14.236923164684995 11.535223303217172
33 11 0 33.428251019333 46.2221032573246 13.148016701648341
34 11 1 34.327050185376585 46.33281843957691 13.372426205369823
35 11 0 34.59527971395141 45.77548915390327 14.045437955481708
36 12 0 8.721393221959483 18.55413529055889 46.42209101543877
37 12 1 8.863583639508462 17.88922544510169 47.03350690826953
38 12 0 9.749028545638748 17.703945304015992 47.066929227223966
39 13 0 35.44169745537745 26.83047677415478 45.956021567480626
40 13 1 35.73732013672345 25.973670656934004 46.19807844106966
41 13 0 35.64197601480859 25.35525909880471 45.50968332510602
42 14 0 12.611333302624118 29.060489763302126 23.026276740775963
43 14 1 13.352152722898202 29.216408748532963 22.41536561956318
44 14 0 13.447063763274516 28.250029853140898 22.42782972176305
45 15 0 31.715200982671753 22.40011304825012 43.35877437677429
46 15 1 31.606016085194863 21.87303102650691 44.13159514276497
47 15 0 30.70139488795383 21.822531475687278 44.387343772528034
48 16 0 41.1275021982083 36.33137174543209 46.360764752795816
49 16 1 41.90922145658206 36.3760866364568 45.744230482424975
50 16 0 42.34198878967362 36.47430804397598 44.860133316554084
51 17 0 38.256765086333914 27.037034307702168 22.548147476400466
52 17 1 38.232296882943295 27.720964726391596 21.955994871960844
53 17 0 37.3820294064165 28.03282514718131 21.848578712956584
54 18 0 42.22624441550733 4.197881421687109 20.601666216704498
55 18 1 42.11069096397219 3.3747016997944663 20.123167057469114
56 18 0 41.29395711802304 3.0202944603636066 20.26164170254617
57 19 0 37.18619808252602 12.324072434496484 15.091674254681118
58 19 1 38.0055214682534 12.373805386694174 15.487501562232335
59 19 0 38.428174512957625 13.079474708279136 15.136026611270344
60 20 0 12.095940165015072 44.63305746584998 30.23990937109045
61 20 1 12.87700500496123 45.13738770015917 30.32619050228665
62 20 0 13.46536312540025 44.79419145882526 30.9791100966585
63 21 0 9.810271835870154 43.59352737522307 33.90996044893236
64 21 1 10.127417995515053 43.51725275094498 34.77418563164483
65 21 0 10.987272820494093 43.21984252071638 34.68894586480145
66 22 0 25.778307298463343 19.703379993188623 1.5503994101154057
67 22 1 25.849026904184097 18.87914954265942 2.4469054196878934
68 22 0 25.727809020604635 17.538041324081295 2.4305301881701933
69 23 0 45.72387887476995 11.960836007466243 34.40209237169786
70 23 1 46.06725742106878 11.178246927919863 34.047740475227144
71 23 0 45.36966982828486 10.563824169183086 33.991346647801585
72 24 0 35.50735429003782 32.70310581844441 17.82537733662081
73 24 1 35.94881125597019 33.35303047053073 17.38548898574778
74 24 0 35.49734790085618 34.088500360657704 17.736450492440895
75 25 0 46.115748162761236 35.498739166556895 11.69891383941842
76 25 1 45.34402396286086 35.87874846943409 11.995674431669638
77 25 0 44.64183989687829 35.42090918591354 11.55175247777256
78 26 0 25.23655484412157 5.52696273876129 36.59798631110167
79 26 1 25.81063128119522 4.921481811339165 37.41480457868796
80 26 0 26.715257365105394 5.65193189530849 37.48503423030068
81 27 0 26.280302155991443 11.76952546361366 9.955497301817568
82 27 1 26.86058130200707 11.082334622895905 10.11084034233284
83 27 0 27.05969643496336 10.975015456075434 11.001538971251213
84 28 0 8.851505155795609 27.87930463915506 29.832115628290694
85 28 1 8.434837464962635 27.43142223361446 29.165468613783798
86 28 0 9.02307039480222 27.02535692343271 28.587892192268153
87 29 0 30.830673617015428 35.01499653074779 17.128801993654445
88 29 1 31.007141541445044 35.46386759264024 16.25820870199852
89 29 0 31.428217895784172 34.59782250759954 16.048360405653085
90 30 0 48.19443935650043 15.030013674590283 44.00419139873034
91 30 1 48.070394928434006 14.897589100790292 44.916604413437426
92 30 0 47.90731403397855 15.765134245360981 45.26093944603682
93 31 0 29.861356895768864 3.602366980364798 18.40210634262548
94 31 1 29.092369808520615 3.5633596126681644 17.89701069777011
95 31 0 28.3540959740413 4.062858108403806 18.258625788000963
96 32 0 9.694556454705964 39.419122200038274 10.22155356584293
97 32 1 9.516963866243493 40.09270684543509 9.666141762802319
98 32 0 10.27137883235981 40.59633507426122 9.425505318525975
