ITEM: TIMESTEP
262
ITEM: NUMBER OF ATOMS
99
ITEM: BOX BOUNDS pp pp pp
0 50.0
0 50.0
0 50.0
ITEM: ATOMS id mol type x y z
0 0 0 27.15708058862435 23.85225928527448 32.3239799144169
1 0 1 26.96217705798652 23.229144952119274 33.05864632116871
2 0 0 26.715452826919048 23.75359478343489 33.83521185669164
3 1 0 26.661183506975355 44.17316707675771 7.505540916402329
4 1 1 26.80617720209619 43.64439377059748 6.663302615689627
5 1 0 26.477732772021845 42.80601919870407 7.029080550180279
6 2 0 39.03236021111471 25.646961761060172 35.77357775761834
7 2 1 38.6036235800774 25.08458805870553 36.49929864085933
8 2 0 37.60198334116246 24.873060915169987 36.313549024181455
9 3 0 13.134552149637264 18.736585385652116 23.6967523691474
10 3 1 12.512590392143625 18.091425692052827 24.090658291099484
11 3 0 13.015089871869929 17.463350655748073 24.666466652574687
12 4 0 33.815827668488424 18.4448115056509 24.627680935965827
13 4 1 33.94149382585585 17.877859098092024 23.841332867941034
14 4 0 34.02735521765444 16.938558266508213 24.129547550874605
15 5 0 17.78112199346668 18.780155215698276 25.586092526682453
16 5 1 17.579418704037767 19.509396005279374 26.234932245686448
17 5 0 17.1875412818187 20.280480965119146 25.75962475365298
18 6 0 12.901921369344645 21.631484984016083 15.212752099927943
19 6 1 12.284465027974328 21.511585923063183 14.45098171717385
20 6 0 11.565706245859381 20.831163645946663 14.42171514983449
21 7 0 36.506362360377665 7.106804057854508 39.0394939640198
22 7 1 37.19812410360132 7.546777414980724 39.60903141265778
23 7 0 36.81466626762253 8.443547092601612 39.48195732830096
24 8 0 5.976000267348378 15.021583059585979 8.717076036892891
25 8 1 5.232965282176338 14.610263462241994 8.243568930870156
26 8 0 5.255019203434426 13.605375038439758 8.371563519047939
27 9 0 18.064555986472882 25.081130046009164 27.222645401440463
28 9 1 18.828022947239102 25.329689092999523 27.32152235176412
29 9 0 19.1738758725747 25.812453441651826 26.632680167434437
30 10 0 33.48366484322619 13.43413935373136 10.499790722025645
31 10 1 34.1090272301709 14.191361361896549 10.682168583702465
32 10 0 34.40060778971597 14.220931217890513 11.668883828159816
33 11 0 33.38458604231386 46.20158448525188 13.153280557108161
34 11 1 34.33143934625013 46.33911878215109 13.369197377209526
35 11 0 34.58531453183709 45.71722511897615 14.101895556867497
36 12 0 8.755341400944056 18.613697416765508 46.35977488489526
37 12 1 8.855079678251077 17.88437789693589 47.03955816569907
38 12 0 9.850356056847758 17.721591635339752 47.03369501560521
39 13 0 35.430268212907535 26.871881288285767 45.940948924750245
40 13 1 35.76135402935835 25.995297278236624 46.2145748162517
41 13 0 35.64862070016476 25.3508715123767 45.48254369132408
42 14 0 12.608541805797614 29.141293208356 23.02104593032236
43 14 1 13.347789548211576 29.21636935065291 22.41156900133213
44 14 0 13.498664589772345 28.26593601935869 22.383961350511104
45 15 0 31.69516403125062 22.40902117984519 43.33486885549066
46 15 1 31.58551047255174 21.84791936991558 44.122481307099065
47 15 0 30.648565750717243 21.82476659439867 44.38550125004302
48 16 0 40.99439928013107 36.37544375109285 46.083344637949295
49 16 1 41.93812890763764 36.372325670518435 45.766553137845484
50 16 0 42.01822225968807 36.50085595802565 44.782162445451746
51 17 0 38.24655597775134 26.968786636782973 22.609981552963728
52 17 1 38.24061249752105 27.719614242175236 21.956412840752574
53 17 0 37.31242671033327 28.048533136258317 21.848594901458885
54 18 0 42.21132937716921 4.198215086457383 20.609051627046306
55 18 1 42.11856299269423 3.3733650465274567 20.12017484115718
56 18 0 41.195915836847995 3.024822493918636 20.308903970964014
57 19 0 37.13338369244545 12.310500651699739 15.077912928185631
58 19 1 38.02300762045992 12.362544924840721 15.509853949471267
59 19 0 38.48999378386258 13.153432376956308 15.10959402167407
60 20 0 12.117137149628915 44.6934055676268 30.151484120569766
61 20 1 12.965488255254312 45.18405424078705 30.186154412024504
62 20 0 13.504332489331649 44.85629342381639 30.927670706441553
63 21 0 9.54137019685441 43.64446952184749 34.052401922952065
64 21 1 10.049499831118867 43.46014989523384 34.89573276174873
65 21 0 11.026345461495243 43.21791772332337 34.98422820069813
66 22 0 25.84266479664313 19.701424428848632 2.0898132790466044
67 22 1 25.84042523198477 18.850388719945858 2.410598991259984
68 22 0 25.795366767014904 18.01372089449893 2.4541038198123175
69 23 0 45.6678469401641 11.992047179848175 34.42571774078919
70 23 1 46.07518021129554 11.176676723811727 34.044594954342365
71 23 0 45.312454942198784 10.557157522686817 34.00194158766525
72 24 0 35.606800607526765 32.469251278161614 17.762811799547706
73 24 1 36.09629827260818 33.29395519207552 17.432711350785603
74 24 0 35.77053581767462 34.19520234917792 17.64485953105979
75 25 0 46.19895953638899 35.48193086829099 11.688334474696896
76 25 1 45.341203152138846 35.88029138120699 11.996135361789896
77 25 0 44.62095792927673 35.41610704782274 11.54603455827655
78 26 0 25.368767699219376 5.399889537133218 36.77719418181057
79 26 1 25.81221783095353 4.944504557478695 37.39939737595718
80 26 0 26.547312040870587 5.405915664080247 37.55182248763202
81 27 0 26.227700458982074 11.835043510772763 9.9755325532881
82 27 1 26.857115514998537 11.074389884512742 10.104270435027827
83 27 0 27.054313256416126 10.989259671316908 11.072063244531781
84 28 0 8.928390215969356 27.913970238750704 29.88566471957137
85 28 1 8.42146332313329 27.4306483972494 29.168100884629247
86 28 0 9.085652743116194 27.0065095101651 28.5641578378169
87 29 0 30.738902136734573 35.209547936825345 17.12636490010829
88 29 1 30.845443608798057 35.51370263516899 16.227131275909098
89 29 0 31.317735262201552 34.75361545360844 15.886425154611437
90 30 0 48.229675320434346 14.849352648179414 43.92555522034093
91 30 1 48.070119091496835 14.912091555661632 44.91040980314314
92 30 0 47.88416711175336 15.716723077658274 45.45151549695369
93 31 0 30.008315762175393 3.5159893910019666 18.35035273874864
94 31 1 29.083563976987858 3.565075993404881 17.89755703491956
95 31 0 28.339714098486024 4.101105980298931 18.313590493300726
96 32 0 9.762244206615378 39.34654099001929 10.29095435640116
97 32 1 9.510438476184168 40.09644236111302 9.661964469799202
98 32 0 10.306438690855673 40.61061012116987 9.42137490854597
