ITEM: TIMESTEP
298
ITEM: NUMBER OF ATOMS
99
ITEM: BOX BOUNDS pp pp pp
0 50.0
0 50.0
0 50.0
ITEM: ATOMS id mol type x y z
0 0 0 27.154876124792285 23.793115768331724 32.341138969470876
1 0 1 26.963625164961588 23.236741949243005 33.05847438547667
2 0 0 26.714048922144706 23.691214347774988 33.848335623510174
3 1 0 26.699366806849532 44.19701920884816 7.403514216363799
4 1 1 26.798336398144166 43.645656408896755 6.679361750547923
5 1 0 26.528851349967436 42.75892514388012 6.83544048786774
6 2 0 38.9903247788552 25.56698758809789 35.88558614935617
7 2 1 38.597014505066554 25.085423553544064 36.48984829204454
8 2 0 37.803677765510294 24.952747590401554 36.28675158484043
9 3 0 12.856731040329379 18.682250261329678 23.62972227969003
10 3 1 12.325543509789743 18.022205053707047 24.009174600544053
11 3 0 12.78179536961958 17.469816353552496 24.577319070311674
12 4 0 33.82103160380469 18.42755519751831 24.582582339529488
13 4 1 33.94054125781673 17.874052696279602 23.847206377346208
14 4 0 34.021408851169134 17.000815768407946 24.111035238438348
15 5 0 17.838213451123234 18.812513365617647 25.72997966173646
16 5 1 17.770291845169776 19.508452568819607 26.294158858607318
17 5 0 17.277290095249395 20.18853728868464 25.937594162790877
18 6 0 12.696926207867845 21.41081087938454 15.245797877208469
19 6 1 12.286347715556797 21.525682651293728 14.42791985347894
20 6 0 11.738183350789347 20.83353805846611 14.683927806161584
21 7 0 36.59740494139756 7.036497899266484 39.09342526671314
22 7 1 37.18332756775859 7.54928338940676 39.60053370765699
23 7 0 36.95184184130412 8.456779177994274 39.58315404997454
24 8 0 5.915415566982139 15.075993063122217 8.66844475353462
25 8 1 5.234165950421473 14.598203310512277 8.24545954708617
26 8 0 5.279462802725327 13.728785071666582 8.374751931007626
27 9 0 19.619968110775766 25.983702717574154 27.093772158549886
28 9 1 18.75724744910387 25.408584844051035 27.283039955428016
29 9 0 19.192580092074547 24.678911930222505 27.697860707275655
30 10 0 33.54380889669111 13.539805570660219 10.436266015163694
31 10 1 34.09016884157138 14.208166772108935 10.65568488670973
32 10 0 34.30838831562485 14.195694196076131 11.47781570600658
33 11 0 33.4437292764206 46.247979624363715 13.129514449403494
34 11 1 34.32996973570464 46.3354076284586 13.375701482241498
35 11 0 34.58430149140665 45.77589351662566 14.042525882293234
36 12 0 8.646589723783396 18.536455721515786 46.451138314447135
37 12 1 8.869576821396157 17.89225241506027 47.0297955680172
38 12 0 9.725515872270512 17.672108197567542 47.10117124150873
39 13 0 35.458779840648056 26.872215581428357 45.98896270470422
40 13 1 35.80454565790054 26.04042645453526 46.234425518397735
41 13 0 35.69910823979476 25.405598964093787 45.56814841142964
42 14 0 12.619389402656134 29.114671415806303 23.014643432889173
43 14 1 13.346749769303093 29.230143942736706 22.39603944264122
44 14 0 13.461273532425185 28.27040284153083 22.411628451138835
45 15 0 31.67006232195055 22.36836640449654 43.362432445495635
46 15 1 31.53676801674846 21.80145715801906 44.09961962982542
47 15 0 30.639547927009442 21.815835640839943 44.376570018693705
48 16 0 41.147783181242644 36.327293226016046 46.38953148047865
49 16 1 41.90850147536125 36.37815644817502 45.7439529008468
50 16 0 42.350665253182456 36.47750864165028 44.84124887370786
51 17 0 38.25384487970516 27.028698351456324 22.557077988037506
52 17 1 38.24151719741013 27.707198826563747 21.968815313397002
53 17 0 37.40233577307134 28.02553079910588 21.851930327349407
54 18 0 42.313439344833874 4.1881233193924645 20.557991770676498
55 18 1 42.10832283513601 3.370280021623153 20.12566155659874
56 18 0 41.28468020066142 3.049814710508176 20.28628895452571
57 19 0 37.235137008180175 12.272565895836243 15.170200122605566
58 19 1 38.05437616016713 12.356042517569211 15.53959137761366
59 19 0 38.47668270015083 13.050787407293143 15.189572232153925
60 20 0 12.259739004098881 44.92583594518306 29.919035835402912
61 20 1 13.127519754246796 45.260036929945436 29.929350550742022
62 20 0 13.586200255422355 45.06740999549779 30.725670370859653
63 21 0 9.701581299902562 43.58068325998822 34.323966341245296
64 21 1 9.881231663848615 43.35389962983152 35.16533824577903
65 21 0 10.740156924777988 43.33175390491018 34.94652183370759
66 22 0 25.884273618943396 19.9465038136974 2.0206463655779126
67 22 1 25.843782332862208 18.837729206623067 2.4541005005725745
68 22 0 25.688133265134727 17.99940396193775 1.789960798970642
69 23 0 45.776434888324516 11.978155386358171 34.39514520212523
70 23 1 46.063376854656354 11.179595467733947 34.046758809366715
71 23 0 45.42080834356475 10.523144783774072 33.96442853591943
72 24 0 35.67525330007996 32.765127523691994 17.756853187692577
73 24 1 36.40671439458846 33.16743696440125 17.500202827502143
74 24 0 35.93053356423125 33.90213192995501 17.698998794057264
75 25 0 46.12318357853679 35.51255228024168 11.711241423743315
76 25 1 45.34618720652486 35.8784134298421 11.99312660502255
77 25 0 44.653107391952524 35.422155691552014 11.552347061981678
78 26 0 25.38377343199261 5.703231651991689 36.567901409918534
79 26 1 25.79265332345005 4.93781783014014 37.39166970195376
80 26 0 26.82384102799941 5.199735601428609 37.88368067331765
81 27 0 26.27737511926874 11.763234165790983 9.954592795236229
82 27 1 26.838975745389032 11.074566491506383 10.109314808930367
83 27 0 27.059223960844765 10.959679942437267 10.982293346925431
84 28 0 8.841595452873694 27.87620251855166 29.830936556337758
85 28 1 8.42460639456145 27.432602727284866 29.179466468731196
86 28 0 8.967976222416272 27.019971401000078 28.58602899192515
87 29 0 30.724635075741787 35.28439112917803 17.06108056087815
88 29 1 30.52772575596552 35.639282516658255 16.154257670317133
89 29 0 31.10043958059465 34.85497180819612 15.858545226013284
90 30 0 48.17247555367788 15.141425693134593 44.05620204035056
91 30 1 48.072309631491486 14.89091000843116 44.92211684646155
92 30 0 47.92226469602836 15.769719221127357 45.160206356192795
93 31 0 29.860550558890804 3.5325783407806908 18.290869461174054
94 31 1 29.073593932944597 3.561193240402032 17.891859529788398
95 31 0 28.629749166220158 4.103716739078593 18.489065651265562
96 32 0 9.755801244903155 39.44154922402319 10.216267616986196
97 32 1 9.51595119213832 40.08989337234878 9.668095992699934
98 32 0 10.221223190551576 40.62342451375117 9.394694998757974
