ITEM: TIMESTEP
303
ITEM: NUMBER OF ATOMS
99
ITEM: BOX BOUNDS pp pp pp
0 50.0
0 50.0
0 50.0
ITEM: ATOMS id mol type x y z
0 0 0 27.14925497239078 23.880628365965773 32.34970436899737
1 0 1 26.964129569067087 23.22660476554066 33.0588638922463
2 0 0 26.71450856852334 23.76590851572345 33.83760513346249
3 1 0 26.680936590203636 44.18812640911995 7.453120440256299
4 1 1 26.80000784882632 43.64763033162144 6.674380118759565
5 1 0 26.515224534108327 42.73580273350111 6.859832383384571
6 2 0 39.06309232513588 25.65923799359721 35.76830262691013
7 2 1 38.605290439939274 25.080961940991806 36.50122728071501
8 2 0 37.6064030241401 24.933800221858053 36.21229790670095
9 3 0 12.904134606929393 18.697268190776562 23.626371383236688
10 3 1 12.287958856497651 18.01206870688296 23.99494603104269
11 3 0 12.84470826381901 17.454715767024112 24.604093717982366
12 4 0 33.813422305400564 18.45535957206324 24.640410291999647
13 4 1 33.94053858616016 17.876581910955792 23.84153114014286
14 4 0 34.026707488897564 16.930205093476214 24.14847166504533
15 5 0 17.835746462298967 18.743078954649544 25.65251034033462
16 5 1 17.801187116740415 19.509053404741753 26.312552492301293
17 5 0 17.23269408851058 20.229577329339 25.8972525642555
18 6 0 12.955871908823505 21.672518272830118 15.228529905692076
19 6 1 12.283942608746386 21.51125745091997 14.446692293023503
20 6 0 11.517395264852446 20.803720569480006 14.389981856211506
21 7 0 36.592940266658815 7.018626872070259 39.087262108408126
22 7 1 37.18292060541152 7.548847669744329 39.60042551638159
23 7 0 36.9615648061705 8.47912538848337 39.59386493913672
24 8 0 5.9771235324355825 15.062206028465773 8.713145941515647
25 8 1 5.225827888799575 14.605604426476486 8.238750526909243
26 8 0 5.3486742512625725 13.621927753075608 8.435159752387355
27 9 0 19.852761891271435 25.891776511200188 27.26308691378719
28 9 1 18.781595141240107 25.429073795003127 27.264827718742286
29 9 0 18.634236095966973 24.594972689652668 27.866789324518056
30 10 0 33.46696944083087 13.434798818733627 10.433624803998008
31 10 1 34.091487520231716 14.220958039099173 10.639207193633341
32 10 0 34.316134927839116 14.146929201634244 11.645656420249175
33 11 0 33.37563067405969 46.19643824427894 13.156474762990918
34 11 1 34.33720419448694 46.34389510113743 13.370264263412952
35 11 0 34.541751704120266 45.698341005798454 14.105640595100919
36 12 0 8.734815986411151 18.611819333407052 46.36491993775574
37 12 1 8.856579059153807 17.883848806498836 47.03993700592037
38 12 0 9.845013019563822 17.731094516589728 47.02551432873357
39 13 0 35.43034243552662 26.903317842908784 45.94146266568458
40 13 1 35.814555237836274 26.045797959825734 46.24526974451977
41 13 0 35.67848233368079 25.400705578493817 45.50741669401686
42 14 0 12.575341306460762 29.491327693695126 23.007434371889705
43 14 1 13.33150472566117 29.20487236856681 22.4095099301467
44 14 0 13.742904924040266 28.32710313961093 22.169990896338934
45 15 0 31.649806221350044 22.39414413894987 43.33321005257328
46 15 1 31.533663354739993 21.79176873762023 44.09867024443834
47 15 0 30.591943831008425 21.830582450649153 44.37098726450024
48 16 0 40.94297108335722 36.422337859294025 45.73959774469694
49 16 1 41.964484396418506 36.37034555734273 45.78558177635587
50 16 0 41.66148890472591 36.51065252517969 44.825658582984055
51 17 0 38.231466260417534 26.945877379270282 22.633535679544558
52 17 1 38.25024347509998 27.70957821068677 21.965338149894222
53 17 0 37.30161493856488 28.045602155339775 21.853753887312198
54 18 0 42.25491665472453 4.2150219384051 20.601285742347322
55 18 1 42.117951949198044 3.3654590940988314 20.11873016394643
56 18 0 41.19311356968073 3.0949715231593506 20.355976299275653
57 19 0 37.14120130051918 12.255570920297819 15.134900314880403
58 19 1 38.06147148034032 12.348642368016865 15.550619481665022
59 19 0 38.54278409968144 13.15070611998322 15.142390889157596
60 20 0 12.237992327590781 44.91765088923127 29.938570901284454
61 20 1 13.154182452917974 45.27525953539797 29.887210127768274
62 20 0 13.571557871761398 45.061922207428246 30.751046226789963
63 21 0 9.33189254695936 43.618156345317175 34.30266525565763
64 21 1 9.868260705442523 43.34256517196938 35.186920865142206
65 21 0 10.926976200927365 43.247111907731714 35.25246005168055
66 22 0 25.879825721097998 19.740526675846247 1.996577406942846
67 22 1 25.846270446650276 18.840964260764228 2.469663362480746
68 22 0 25.651015692758076 18.157772470532706 1.55953653304523
69 23 0 45.67990251277355 11.997542165654108 34.424345700291845
70 23 1 46.07551357758557 11.177561440379966 34.04298525845071
71 23 0 45.32728146671214 10.536125164255418 33.99068698936162
72 24 0 35.766826060266254 32.31203887332114 17.713160920437733
73 24 1 36.42530117661376 33.1577327419201 17.518216657147104
74 24 0 36.25934353579556 34.233185645264165 17.608607645240543
75 25 0 46.22617871966917 35.50719661419104 11.712010003100804
76 25 1 45.344395483485904 35.878512023601395 11.992875890285685
77 25 0 44.58413281285828 35.42693446035724 11.552764416269483
78 26 0 25.675182793551844 5.426131546970163 36.96091390286982
79 26 1 25.80029819389668 4.958315261135957 37.38194959514849
80 26 0 26.40695475945194 5.147431957154397 37.64603173998834
81 27 0 26.21805206299925 11.849261763744765 10.011172143893583
82 27 1 26.84180846270926 11.065497005017596 10.099256837503676
83 27 0 27.038597962730975 11.004259081141434 11.082261769186573
84 28 0 8.966300979249489 27.904356373750623 29.873840452715378
85 28 1 8.408133972878444 27.431792834633796 29.179308527971923
86 28 0 9.084233959843864 27.005780912618242 28.567499479716854
87 29 0 30.45195394986973 35.662495522027754 17.14472127713916
88 29 1 30.509676814898093 35.6193040063273 16.162192541378694
89 29 0 30.9263437524446 35.09880911300772 15.473829392580823
90 30 0 48.23078097411645 14.897558491205368 43.881965669644764
91 30 1 48.071669810543305 14.905953002991582 44.91476994817615
92 30 0 47.87653995804158 15.773804481392558 45.45591017572675
93 31 0 29.98369720870037 3.429351720322502 18.198998790784092
94 31 1 29.073545194020127 3.5665862268069315 17.901122520018987
95 31 0 28.50484998772563 4.114348963319847 18.436377656753418
96 32 0 9.857250893849296 39.37737549929547 10.285822800052541
97 32 1 9.504263722812615 40.09321366160796 9.663227613660844
98 32 0 10.306264205603503 40.63492038937878 9.402553442873327
