ITEM: TIMESTEP
390
ITEM: NUMBER OF ATOMS
99
ITEM: BOX BOUNDS pp pp pp
0 50.0
0 50.0
0 50.0
ITEM: ATOMS id mol type x y z
0 0 0 27.13669298661191 23.916821738717317 32.394772600660275
1 0 1 26.969294875415716 23.227045958082922 33.05888238485021
2 0 0 26.70523678053772 23.723298817951378 33.875848610953014
3 1 0 26.57577995904284 43.91196448875875 7.557622752265066
4 1 1 26.7959131578812 43.6676762159186 6.675441210332908
5 1 0 26.578436230986796 42.68334888302471 6.621904590185621
6 2 0 39.431426696778296 25.586300307821734 36.0873091401003
7 2 1 38.58388015668124 25.073624770465788 36.489023529862024
8 2 0 37.73963332015708 25.162602707709826 35.89442844865286
9 3 0 12.2879100130794 18.628909411937208 23.428459390627385
10 3 1 11.799042047627704 17.83369305137087 23.786770402953564
11 3 0 12.39834282714759 17.42382551122148 24.453675618948665
12 4 0 33.81106421678943 18.483426976280533 24.621422042474357
13 4 1 33.93803384437965 17.87068602431004 23.846081495173305
14 4 0 34.021304499663934 16.949057975545934 24.184714830506945
15 5 0 18.04519969533636 18.65961166283745 25.93629117988258
16 5 1 18.275561328322382 19.478957045077774 26.45772723447733
17 5 0 17.47784040066815 20.098290845157113 26.42892660306206
18 6 0 12.935178225827537 21.66929113045219 15.196084346987636
19 6 1 12.282887636910209 21.512244729872467 14.432973640352651
20 6 0 11.550042809754485 20.8143269765605 14.4214407428191
21 7 0 36.524536079000576 7.147951081192611 39.059647002557455
22 7 1 37.18055941063412 7.53668646896338 39.601848235430296
23 7 0 37.04239218424084 8.493831982296099 39.65566812231591
24 8 0 5.82879282727743 15.336018485330017 8.578238769546072
25 8 1 5.217273444296251 14.57807806366459 8.234947345911223
26 8 0 5.583475248824336 13.743470555026219 8.58558985054834
27 9 0 18.680086446060947 24.65248138890347 28.01113441798165
28 9 1 18.95742257691027 25.586955458961803 27.328995031908626
29 9 0 18.235365827837445 26.376579215457333 27.017145076628843
30 10 0 33.48348964387823 13.640445197216769 9.944692371839881
31 10 1 34.04916599818518 14.28430435548238 10.558172225661089
32 10 0 34.06364791781048 13.931997210565983 11.508795268217058
33 11 0 33.38614678624611 46.26825546587436 13.090480778254031
34 11 1 34.34775278957991 46.348969828153045 13.378774443885574
35 11 0 34.46648541500168 45.68030964450524 14.097957262640337
36 12 0 8.655968688601124 18.62394517755617 46.36619486268763
37 12 1 8.85959890644921 17.87848267630233 47.04487114456297
38 12 0 9.870668481480118 17.802641818543126 46.95313039382925
39 13 0 35.46258977125468 26.987707558004097 46.02565635969056
40 13 1 35.939474477826174 26.16988537848676 46.31186914496672
41 13 0 35.783090047102604 25.489153091785262 45.62219389860783
42 14 0 12.580613676325811 29.63857922560752 22.96909161300895
43 14 1 13.318735307828055 29.229118366813847 22.37582591283019
44 14 0 13.81376106632559 28.371350138434817 22.07814052212237
45 15 0 31.590628366456727 22.327988925974704 43.349946967503186
46 15 1 31.40185617759223 21.6593248809074 44.03791161514063
47 15 0 30.49483791619649 21.809890322126794 44.36996082676986
48 16 0 41.13111240101458 36.38947736220285 45.91453023161696
49 16 1 41.94426463578889 36.37789656842997 45.76867628312668
50 16 0 41.83236033252789 36.488351396942605 44.932008505022914
51 17 0 38.2046857103187 26.92493049195232 22.65874000046283
52 17 1 38.270476702996206 27.676140484963085 21.995804584379936
53 17 0 37.34279131615908 28.046278062256153 21.846659955038614
54 18 0 42.49915242262122 4.213209644885204 20.49374424997987
55 18 1 42.10628388104458 3.345511294172936 20.11988670273979
56 18 0 41.216199023427876 3.312355940198713 20.487341477323113
57 19 0 37.22308813117252 12.140433318565098 15.29220643251852
58 19 1 38.16130587185157 12.31479310056751 15.653169316392944
59 19 0 38.53799825068078 13.115901975030026 15.174572060789759
60 20 0 12.571914776526063 45.48963570157721 29.289812799258474
61 20 1 13.548473423304126 45.45977231572525 29.26489278851711
62 20 0 13.85322282019941 45.618867861192335 30.1901232554848
63 21 0 8.90346133561707 43.527119905530775 35.069428369699075
64 21 1 9.49003458367259 43.09173950743346 35.79636116488739
65 21 0 10.478899676798074 43.29786595578507 35.91405576663111
66 22 0 25.32498415393482 19.81569832813997 2.056838431371989
67 22 1 25.904143473673262 18.80519923172027 2.468962306900995
68 22 0 25.244116969599368 18.73909877923406 1.3991386486608088
69 23 0 45.6369035601206 11.977907003727044 34.426062929372776
70 23 1 46.083054271860554 11.179597239260797 34.03717856925838
71 23 0 45.33310971058553 10.51958704063718 33.98246427001697
72 24 0 36.268562132958294 32.31720198014642 17.656245021281954
73 24 1 37.119055501611754 32.878040477592755 17.692901969602296
74 24 0 37.32786321676637 33.9134598751845 17.502879409204017
75 25 0 46.1801234589783 35.46654253859796 11.672984989500998
76 25 1 45.356864333876075 35.88072129662655 11.99036529582568
77 25 0 44.54148241724693 35.45413640834799 11.572134522599477
78 26 0 26.413599665387675 5.392104504677187 37.474259588019386
79 26 1 25.79512982650654 5.01092012545705 37.3415127680825
80 26 0 25.68741690342625 4.310532238691245 37.77648965905206
81 27 0 26.206048724957054 11.858158445851732 10.038129481944711
82 27 1 26.79799758872062 11.048912190539271 10.09309384637255
83 27 0 27.052481698071905 10.966531760854258 11.06707460098077
84 28 0 9.027179755933993 27.881001326393537 29.8447677386201
85 28 1 8.382990836546893 27.436788243043424 29.21134344801301
86 28 0 8.972908478479948 26.968382521996826 28.52277462870269
87 29 0 30.025532261941898 36.145076680783596 16.95277717266588
88 29 1 29.773067411261373 35.89765458708585 16.004297802101416
89 29 0 30.101451164288253 35.51206691550846 15.11142722744293
90 30 0 48.21098770155494 14.993955685665286 43.938272530406266
91 30 1 48.07549241853022 14.901912385668009 44.91770513136299
92 30 0 47.882548824987104 15.760374939262489 45.43185746101976
93 31 0 30.01128287621157 3.4001745391365463 18.164973535912356
94 31 1 29.070746357081063 3.5585228216606812 17.904609856981686
95 31 0 28.471000676173354 4.14516549588072 18.488338528176413
96 32 0 10.075275648556005 39.50197453183048 10.232444222778172
97 32 1 9.501835503682566 40.076685060584516 9.675476088288706
98 32 0 10.116737500530112 40.7838236168125 9.250181889011763
