ITEM: TIMESTEP
393
ITEM: NUMBER OF ATOMS
99
ITEM: BOX BOUNDS pp pp pp
0 50.0
0 50.0
0 50.0
ITEM: ATOMS id mol type x y z
0 0 0 27.145698545446166 23.853775378002133 32.374010000317405
1 0 1 26.968681254212235 23.235702436427648 33.06038205291968
2 0 0 26.708504284853994 23.6478832998241 33.87593715496576
3 1 0 26.566823315524097 43.84035065019842 7.530964570541151
4 1 1 26.79554795178135 43.665862929578466 6.674188128440417
5 1 0 26.589038815776455 42.7837025709877 6.664021512886083
6 2 0 39.30795343258768 25.503425202775414 36.15944554875664
7 2 1 38.58320594688494 25.078996039349033 36.4792571807539
8 2 0 37.88006979330959 25.16102860151187 35.97102916392226
9 3 0 12.197366112309608 18.595505681365662 23.40645548464274
10 3 1 11.790271373878264 17.830571366785456 23.781800822668195
11 3 0 12.316063500262098 17.402446299410958 24.426118920741146
12 4 0 33.816307752326395 18.464628175414788 24.578429353035506
13 4 1 33.93774973712712 17.869490256125268 23.85043945062336
14 4 0 34.018727783865025 16.985131879102035 24.16149262928256
15 5 0 18.098568673884763 18.69678685897853 25.98582571153493
16 5 1 18.284755912965895 19.47589681129636 26.459021527101356
17 5 0 17.559435713061497 20.073241812316667 26.46744001507539
18 6 0 12.878963879867703 21.639067923183134 15.157302084390244
19 6 1 12.282926638718484 21.511873249780695 14.43321087270565
20 6 0 11.60550588886869 20.85144568406957 14.447778786886834
21 7 0 36.49701878605482 7.289752960789295 39.0625389676564
22 7 1 37.187747888231065 7.533016758874175 39.606706115390274
23 7 0 36.953903900218705 8.408767959491993 39.5772748985496
24 8 0 5.740676906815986 15.323358998018733 8.51789240699832
25 8 1 5.226064136905458 14.577181567335728 8.241174681742077
26 8 0 5.5289693151756705 13.768712061808406 8.544523379387542
27 9 0 18.530738237447345 24.886229441097555 27.811163022074922
28 9 1 18.964888550014518 25.5771738029703 27.347630884236665
29 9 0 18.311673084689904 26.418483734677707 26.95418411790044
30 10 0 33.56294101085565 13.75199942219194 9.977665811335854
31 10 1 34.041634157047255 14.276023734173705 10.558328744729527
32 10 0 34.07118500080477 13.991220212538936 11.400805693841741
33 11 0 33.456433343244235 46.3189763598143 13.066537959834909
34 11 1 34.340685926012256 46.34279397400024 13.382646180255284
35 11 0 34.51336426344479 45.73364845299912 14.06240206736335
36 12 0 8.591151986580481 18.52121168927662 46.47480761232763
37 12 1 8.871538644516198 17.888163159461648 47.03370165994101
38 12 0 9.744258756543816 17.750402020980463 47.02353542841721
39 13 0 35.49578049212531 26.98129196913976 46.075764350468994
40 13 1 35.94024712778262 26.175453223020277 46.30855691108392
41 13 0 35.816854657756934 25.486725793906647 45.672425072846345
42 14 0 12.620008175264374 29.3465001512878 22.984936736602776
43 14 1 13.329467802137216 29.250641165281532 22.36069828434582
44 14 0 13.597638681164522 28.341412176574433 22.278381405003753
45 15 0 31.606328367017465 22.300149462044615 43.36341852371187
46 15 1 31.394338631920675 21.657397958098578 44.034392843980235
47 15 0 30.515063768496926 21.786435218314942 44.377450069035376
48 16 0 40.97381087564225 36.396908999299335 45.90204296914106
49 16 1 41.95825359382103 36.37659444145873 45.77611472744667
50 16 0 41.76723923942129 36.504345305684424 44.825898767573925
51 17 0 38.22583699905518 26.97270469356909 22.61354029522256
52 17 1 38.265454021107836 27.67253271265868 22.000059645930715
53 17 0 37.415292034669385 28.032223369128104 21.845494821553054
54 18 0 42.537450048698666 4.139301475682774 20.430654356325213
55 18 1 42.10232792159175 3.352808236840495 20.126530494906103
56 18 0 41.24435585959032 3.265430607312043 20.445795822152558
57 19 0 37.30980334280407 12.161871853622225 15.32159580187109
58 19 1 38.16255670982017 12.316123834469865 15.653432104468353
59 19 0 38.49447902339039 13.04714033699238 15.209830743123781
60 20 0 12.612724819827763 45.49754615972431 29.20919560069033
61 20 1 13.557551439241445 45.46763246134472 29.25013830717772
62 20 0 13.907558797025612 45.62694842343534 30.119148298072727
63 21 0 8.940211582070036 43.48026057873566 35.17103015256757
64 21 1 9.478923554015978 43.08695105925943 35.81309654636673
65 21 0 10.37937884871847 43.28066560812765 35.932847472319466
66 22 0 25.82083514643832 19.53507394200893 2.736360475235548
67 22 1 25.843309142718976 18.85337442050559 2.3960388983571477
68 22 0 25.720207834446164 18.252221809724446 1.8820267114030813
69 23 0 45.71038885397314 11.944775790673221 34.39672814666388
70 23 1 46.07317828827793 11.18072574850749 34.03975148335912
71 23 0 45.42090100354058 10.53452082977008 33.96675056183373
72 24 0 36.321903430539024 32.48730977241296 17.615717564324328
73 24 1 37.15037184579485 32.86772056914401 17.701040178241165
74 24 0 37.21124893801067 33.747304956987854 17.500540003526847
75 25 0 46.10506175207014 35.45351245263209 11.657415522957272
76 25 1 45.356458285877565 35.88177866704525 11.991057897544913
77 25 0 44.62746938130296 35.45117230020727 11.574175852534117
78 26 0 26.692124944676845 5.495210056669159 37.583678177789324
79 26 1 25.784913378785447 5.013406160169283 37.33300970129769
80 26 0 25.569863536492818 4.16650624469182 37.80299585486721
81 27 0 26.244210284364197 11.788603575165157 9.982935210662276
82 27 1 26.793046474227083 11.055358238358673 10.101910650430959
83 27 0 27.066286189030382 10.92142919548905 10.977876271451029
84 28 0 8.920970341718418 27.864137564212985 29.822396251688303
85 28 1 8.395674199637362 27.43662622371565 29.211836193213678
86 28 0 8.8586636261448 26.988542866055663 28.5542794304102
87 29 0 30.19506124114203 36.09095529970274 16.83439696881935
88 29 1 29.725440293571214 35.91024872846623 15.996158536482946
89 29 0 30.241644685196807 35.549965511933415 15.253344857199188
90 30 0 48.21802654698418 14.909616875608828 43.96697542478095
91 30 1 48.074784021367805 14.913171822002848 44.913352162035
92 30 0 47.88869446485352 15.665278229457439 45.475896836949005
93 31 0 29.841811834408976 3.5057080328091192 18.236781547060872
94 31 1 29.069288369118976 3.5567519617912637 17.901793428435134
95 31 0 28.66181151005886 4.0629967615872955 18.464470370416823
96 32 0 10.00167682637185 39.51437352170093 10.208370248724561
97 32 1 9.512746746430212 40.07779472348878 9.676765415939013
98 32 0 10.015349369527737 40.75402377421582 9.253242340523217
