ITEM: TIMESTEP
406
ITEM: NUMBER OF ATOMS
99
ITEM: BOX BOUNDS pp pp pp
0 50.0
0 50.0
0 50.0
ITEM: ATOMS id mol type x y z
0 0 0 27.153724879379443 23.879850662623433 32.34481885028051
1 0 1 26.969783078629188 23.233836586169 33.05999055027002
2 0 0 26.69357451185822 23.65185602106601 33.92584539152608
3 1 0 26.560925185681324 43.88344965699194 7.578609834070486
4 1 1 26.793554287558496 43.67045877603147 6.679361971349909
5 1 0 26.60864064816475 42.665920559875126 6.513655127694961
6 2 0 39.45472392359195 25.574195916672558 36.12057051069877
7 2 1 38.57875129613498 25.06870461438049 36.49176630074089
8 2 0 37.831314825271036 25.261374266142532 35.77719295841127
9 3 0 12.131466754572719 18.629679776338648 23.355783523960003
10 3 1 11.713068221600693 17.802366849629085 23.749741841965548
11 3 0 12.28495376630663 17.373447181982264 24.44110446748622
12 4 0 33.80999194698837 18.49588910307406 24.61471099515752
13 4 1 33.93745707788485 17.869534886500556 23.847625879531527
14 4 0 34.021571527965165 16.945100578637483 24.185449137249474
15 5 0 18.116231845869937 18.627445551373008 25.99148946220282
16 5 1 18.358877438522995 19.46908214332588 26.482332328351813
17 5 0 17.554880423940762 20.085250189011273 26.55006932481801
18 6 0 12.821031375335254 21.520295742284915 15.25906583945128
19 6 1 12.284415710592185 21.52353433492435 14.414779756121053
20 6 0 11.639121583800875 20.787808207119983 14.603392347520392
21 7 0 36.48502164698549 7.231946913505356 39.04461119749017
22 7 1 37.18416387648344 7.5302955181290265 39.60452333431987
23 7 0 37.018957027617326 8.501538796219634 39.639772622266634
24 8 0 5.760684435008045 15.41434972400435 8.521659628819439
25 8 1 5.219660861491041 14.572976271364816 8.237005737704187
26 8 0 5.602869176846649 13.737366770219538 8.59975823105313
27 9 0 17.81558505290863 25.804738065629383 27.03026956060389
28 9 1 18.937398609959256 25.57037980167388 27.41883342492138
29 9 0 19.666015725636022 26.12422578277681 26.74777891454018
30 10 0 33.497653262025956 13.693812227706678 9.857264680930045
31 10 1 34.041447861288816 14.29781461890549 10.541703553621726
32 10 0 33.995979454469655 13.865910501265876 11.47509894888093
33 11 0 33.39135419464173 46.32673423395748 13.034129939058591
34 11 1 34.346073858945175 46.34684264197443 13.382241416068089
35 11 0 34.51001902992409 45.683827585265895 14.111914762195164
36 12 0 8.504005549382464 18.628716030581966 46.38632599913088
37 12 1 8.867104953040657 17.882972803746778 47.03942747293212
38 12 0 9.901517710432298 17.725572287654774 47.021730593957066
39 13 0 35.47908718521698 27.02706711543425 46.07245695205024
40 13 1 35.96204712574769 26.194743741308002 46.32226840224086
41 13 0 35.82512392609874 25.476716741531042 45.65984480892684
42 14 0 12.641112920846185 29.107331729489907 23.00820859299732
43 14 1 13.337856363717604 29.274124013559657 22.341863270147368
44 14 0 13.420637492114636 28.301450075568567 22.44415009669907
45 15 0 31.598291203177514 22.3075782258593 43.34893683821629
46 15 1 31.374662542241772 21.63468477918977 44.025445141589586
47 15 0 30.475730427852575 21.789823222304964 44.38360729025206
48 16 0 41.188653146913865 36.36859569833397 46.06142041182403
49 16 1 41.932420721745245 36.380437467336634 45.75917875653658
50 16 0 41.97180830030705 36.48242962452495 44.939305970962195
51 17 0 38.2108781615999 26.912891831080692 22.66848701636945
52 17 1 38.2739805900879 27.66820062937472 22.003115086568116
53 17 0 37.351420133467634 28.055115353766865 21.83765423154623
54 18 0 42.62161117880188 4.189040592980389 20.42516894315194
55 18 1 42.1010721479639 3.3472893186476607 20.125071962816346
56 18 0 41.19399120648296 3.2862631408976792 20.48184712478052
57 19 0 37.23574751756012 12.11389738319902 15.324555962170004
58 19 1 38.18126857115187 12.307919625460244 15.67370102029647
59 19 0 38.541261830031836 13.114388652941933 15.178758583796425
60 20 0 12.637505714872848 45.57922365729535 29.10114303182438
61 20 1 13.61581818166731 45.49472620143914 29.157748341910487
62 20 0 13.971052838415508 45.71360847145012 30.059711614249608
63 21 0 8.95587005109823 43.58785637527879 35.189890402802
64 21 1 9.41561665501634 43.03529228324231 35.9154036493328
65 21 0 10.355424583757728 43.4024469996535 35.92495296281715
66 22 0 25.73232023799318 19.9004910171075 2.88920424573789
67 22 1 25.849510975591784 18.85543374007037 2.3999170611663323
68 22 0 25.70338418953404 17.868174798758805 1.6482020555463865
69 23 0 45.70839175041357 12.036450587365257 34.42932305891041
70 23 1 46.07617323077311 11.180990366881915 34.03833605231239
71 23 0 45.389114850006415 10.437999165177837 33.93997580243253
72 24 0 36.306074232219814 32.64120489625375 17.539133007175796
73 24 1 37.2696166224489 32.812021265024214 17.734734943955264
74 24 0 37.176193221111106 33.80499324725149 17.405162288520476
75 25 0 46.14329325850849 35.42605479487552 11.635319831524054
76 25 1 45.35917576209898 35.88484450171465 11.992960986462007
77 25 0 44.56504699792285 35.43364576640808 11.555113609289766
78 26 0 26.455424855035115 5.118220931428295 37.70014499387521
79 26 1 25.804157673947405 5.026187812018494 37.336637643711846
80 26 0 25.487853916245502 4.334028351458785 37.62794280796182
81 27 0 26.189226073387992 11.862201720645668 9.98376586341012
82 27 1 26.78757739838924 11.048485721235147 10.09575892333627
83 27 0 27.090699013844205 10.907828756157288 11.061124750172818
84 28 0 8.999519578179877 27.907344678471294 29.88496321022091
85 28 1 8.38366945789171 27.437607195264075 29.217542921416488
86 28 0 8.896396199149086 26.93265291673684 28.47405962723065
87 29 0 30.296005825226526 36.08239002061779 16.610461423639585
88 29 1 29.59501375252955 35.95282569626097 15.973602461464335
89 29 0 30.307446657680934 35.663569477937486 15.385429141821866
90 30 0 48.20356942846505 15.040964262963094 43.947280655343995
91 30 1 48.076412599606506 14.89836213081282 44.91998294819526
92 30 0 47.88511421409985 15.773987446317213 45.40291529230127
93 31 0 29.95623127309933 3.5484016639873435 18.36368580076475
94 31 1 29.067525863054623 3.546541040129642 17.88810110815595
95 31 0 28.56697898622233 4.162143355448351 18.569111411420142
96 32 0 10.092927663030729 39.4978666700905 10.239085480596724
97 32 1 9.505663601669006 40.07435902615723 9.678017278929772
98 32 0 10.035661670356623 40.82703576654371 9.200829093707696
