ITEM: TIMESTEP
464
ITEM: NUMBER OF ATOMS
99
ITEM: BOX BOUNDS pp pp pp
0 50.0
0 50.0
0 50.0
ITEM: ATOMS id mol type x y z
0 0 0 27.118658617338898 23.93311821977206 32.46206799991947
1 0 1 26.974361340654504 23.22920733944876 33.06087466703796
2 0 0 26.710236487386467 23.6740139566115 33.86724107227946
3 1 0 26.529861903664354 43.691697226894576 7.511910680157466
4 1 1 26.78164031328133 43.66652866084974 6.691813703971171
5 1 0 26.740156714604613 42.91562188661092 6.2813595194519145
6 2 0 39.470166488777956 25.33218282003504 36.53049675666908
7 2 1 38.56420547933431 25.07817725602583 36.457824837475876
8 2 0 38.18045242085187 25.383584903431 35.75012863562991
9 3 0 11.729724505555824 18.51037702330926 23.289290390445025
10 3 1 11.376127829730097 17.67866003184964 23.60776362820324
11 3 0 11.97730286727453 17.418225110641245 24.277114878252817
12 4 0 33.81273291624278 18.48307838268075 24.591522902328208
13 4 1 33.93514025389069 17.865494195493586 23.85259586661677
14 4 0 34.01524225669412 16.982497573559893 24.204447952466765
15 5 0 18.339731668679843 18.61022821052657 26.223438410897597
16 5 1 18.665400234465324 19.422854920794197 26.574463426502668
17 5 0 17.902091095354876 19.89496674771032 26.929558340430976
18 6 0 12.794890173073224 21.542112645591818 15.179359725544327
19 6 1 12.283403004690046 21.520161974391335 14.40961403930492
20 6 0 11.680404910023382 20.84153219165184 14.57913764162311
21 7 0 36.56449979236835 7.177280194570949 39.0964892167637
22 7 1 37.16199001550507 7.540693170915465 39.59411381422065
23 7 0 37.27314031103794 8.347293543600149 39.802284760170785
24 8 0 5.623492658076516 15.42847261005501 8.42381113728595
25 8 1 5.216377402838651 14.554853631072403 8.23597607170058
26 8 0 5.750199526468646 13.97530579497338 8.675804753965265
27 9 0 18.25933853307989 25.12767761730233 27.706410724143804
28 9 1 19.031842596418453 25.733064251618035 27.401225239157146
29 9 0 18.657495788680208 26.72452616646027 27.088245156717814
30 10 0 33.638896202054525 13.985930110337847 9.673977529856135
31 10 1 34.003447749867824 14.3349391934902 10.481379909897168
32 10 0 33.79168562551461 13.780486406878643 11.125289653720765
33 11 0 33.45808113331842 46.32159295652746 13.066958679346762
34 11 1 34.355732112446994 46.353147430080305 13.387525617044423
35 11 0 34.37753029787231 45.70008421245722 14.04742748419617
36 12 0 8.599972122628444 18.498719833059706 46.4949238383777
37 12 1 8.872734635790158 17.88050347361893 47.041120281444734
38 12 0 9.711373955074583 17.893233283022358 46.8926221093689
39 13 0 35.50796838141787 27.026802265390916 46.101121010200885
40 13 1 36.05746064265742 26.28912712169848 46.375960985742395
41 13 0 35.88218274668068 25.59998239234794 45.743349241286325
42 14 0 12.650308175714894 29.19871671189353 22.99495218444708
43 14 1 13.327572060673765 29.295371567945686 22.31106896706363
44 14 0 13.468624347020281 28.343072448752288 22.397128217297773
45 15 0 31.53197608333771 22.243231335177853 43.3834352079254
46 15 1 31.2741914244862 21.534543131925677 43.97989925604838
47 15 0 30.42944856459101 21.782319460842803 44.363760757161735
48 16 0 41.052755202381306 36.33775801798998 46.3482196775766
49 16 1 41.933214318657676 36.38466701064215 45.7532648803406
50 16 0 42.12548611200814 36.50200101684019 44.756015275883854
51 17 0 38.18201584724512 26.926595726808685 22.66384771539444
52 17 1 38.289173017484956 27.633885538097505 22.034319566057036
53 17 0 37.42054067716982 28.0137847779398 21.861725836711358
54 18 0 42.65617865059733 4.0945782102281285 20.350876022344494
55 18 1 42.094716484798745 3.333455116207407 20.126474036191393
56 18 0 41.329273052457296 3.513388445396497 20.5698023787003
57 19 0 37.367879772327484 12.024007979931792 15.48429807347858
58 19 1 38.254129861515956 12.285371350928262 15.747117756192225
59 19 0 38.550651522324365 13.028656527565053 15.262380461379072
60 20 0 12.99084211238705 45.94380770023175 28.619770327349745
61 20 1 13.871484580663257 45.62084245725704 28.752565320388268
62 20 0 14.163941140458784 46.066728409680245 29.54686719502043
63 21 0 8.692724292264982 43.43741293249381 35.82790324988619
64 21 1 9.16919803918807 42.879821937008664 36.312022363826024
65 21 0 9.921067710624907 43.327997673913345 36.42888721868339
66 22 0 25.866069847592016 19.791013160821443 1.916634643379454
67 22 1 25.775299848927737 18.755092376827932 2.4042874477461327
68 22 0 26.72656448493953 19.654193905112702 2.456819349420628
69 23 0 45.66442588900331 11.908617418837265 34.39305968754405
70 23 1 46.08068383078008 11.182542897179875 34.03386835665258
71 23 0 45.43098272694523 10.537940385525719 33.964339913294495
72 24 0 36.89832809402023 32.45023337063802 17.61008562556016
73 24 1 37.70956932725815 32.66495394775873 17.828841699515458
74 24 0 37.954839282030754 33.35990853558244 17.417839637935813
75 25 0 46.13456286952654 35.46339269139259 11.666062708543508
76 25 1 45.36815214255155 35.877654318478925 11.982390189343725
77 25 0 44.52785801740192 35.53304813033943 11.638007915668153
78 26 0 25.820565147407255 4.251288541533303 37.90862492672356
79 26 1 25.859043825179757 5.028799078682282 37.37179661814197
80 26 0 25.190900422910044 5.134531103683017 36.854229697871915
81 27 0 26.238967906150776 11.80625443066939 10.087346643643981
82 27 1 26.75175603804272 11.033505918221753 10.089943206523118
83 27 0 27.030286997016802 10.955406390460976 10.980794511933404
84 28 0 9.031543133058628 27.803151596723147 29.739732971808564
85 28 1 8.363274270586222 27.441296394296238 29.243390350440993
86 28 0 8.818310039848903 26.991884118924922 28.568263957671242
87 29 0 29.853130089598793 36.55079057978036 16.385662730595048
88 29 1 29.115882559152038 36.11764924948463 15.878647990172253
89 29 0 29.69356075853494 36.124544289739994 15.075952308155577
90 30 0 48.1695400562365 15.189969227905783 44.04528678443893
91 30 1 48.07936035555839 14.891445113864616 44.92771245042635
92 30 0 47.9117237496669 15.751029626002506 45.24775359041798
93 31 0 29.733158096115712 3.584091490815625 18.30377881362801
94 31 1 29.090170930081307 3.5541659134915267 17.926268342919364
95 31 0 28.38513644711486 3.8978517129515002 18.080054702430225
96 32 0 10.214261477561086 39.690805952533296 10.113869582835976
97 32 1 9.506146054102967 40.06413192308256 9.685972443168717
98 32 0 9.897788690953277 40.80534534037656 9.1904376156972
