ITEM: TIMESTEP
466
ITEM: NUMBER OF ATOMS
99
ITEM: BOX BOUNDS pp pp pp
0 50.0
0 50.0
0 50.0
ITEM: ATOMS id mol type x y z
0 0 0 27.12225817583749 23.951194139174667 32.44744671777737
1 0 1 26.973790559804556 23.22884641041081 33.063499015098664
2 0 0 26.718142385838192 23.661783913508348 33.84298830753071
3 1 0 26.465769895668465 43.57237899021352 7.628781909612783
4 1 1 26.787766754010086 43.680426950895026 6.68137257051258
5 1 0 26.702416046540478 42.81238539635302 6.327298049967097
6 2 0 39.412378528421755 25.290549720738937 36.56769148819118
7 2 1 38.570823537773975 25.079189866563244 36.459297347188745
8 2 0 38.137899462547864 25.41035078515202 35.68264559294962
9 3 0 11.693733040075372 18.48004354851666 23.288827193587405
10 3 1 11.36386436084931 17.67633940164784 23.60118442503547
11 3 0 11.966612255997818 17.403554911912995 24.283544773868098
12 4 0 33.81763391430882 18.460008403080757 24.558763130953878
13 4 1 33.93473342173452 17.866639080861823 23.85509237560384
14 4 0 34.01512416390604 16.985551336327607 24.200442933941208
15 5 0 18.363523400161895 18.604362143180555 26.227455419495357
16 5 1 18.673860259352836 19.421689118225554 26.579238161279722
17 5 0 17.960535137405486 19.876241918583137 26.931435150626413
18 6 0 12.891203192665039 21.652879370618727 15.148197993859016
19 6 1 12.282593247920724 21.513533240391485 14.418893627625357
20 6 0 11.597049736167484 20.83776777433103 14.453920557697417
21 7 0 36.40363911450594 7.2342951013926164 38.9867581386798
22 7 1 37.17703261257244 7.5257685108225765 39.60306578704158
23 7 0 37.19243300198655 8.52727403174165 39.77080691315661
24 8 0 5.565882269952367 15.353083200881814 8.391817746393691
25 8 1 5.217856135922891 14.563310556419196 8.236033656981094
26 8 0 5.782357081550329 13.913781532227981 8.70525563155302
27 9 0 18.45867911403287 25.38628110481523 27.53329470164315
28 9 1 19.00196284966637 25.74669403926775 27.40962123678133
29 9 0 18.97487423372947 26.35334620895831 27.15742642206402
30 10 0 33.684547354327506 14.05252527077075 9.703452953173164
31 10 1 33.999381179753044 14.334694720187123 10.471167842038613
32 10 0 33.78403807015732 13.751054879391411 11.197474080367959
33 11 0 33.492151797761004 46.33028060024917 13.071740536584523
34 11 1 34.35326408620564 46.353668376353035 13.38636420252431
35 11 0 34.386719809048216 45.68777309315042 14.063470371794251
36 12 0 8.577219882012875 18.532320039722972 46.46652779833776
37 12 1 8.868958222198085 17.87843342489465 47.043722090115175
38 12 0 9.794375284017406 17.89267573573775 46.87966698018026
39 13 0 35.526042911500205 27.017777653418957 46.11857219134937
40 13 1 36.05969331924376 26.294011796560905 46.376656292708255
41 13 0 35.894152719005554 25.597504754860214 45.75462251032367
42 14 0 12.59789504451184 29.497486264438656 22.975551164356254
43 14 1 13.317234881883314 29.276570444812975 22.324210240576765
44 14 0 13.681886965532598 28.364915410047672 22.183023535774442
45 15 0 31.533730779946964 22.226783138413445 43.390292019740514
46 15 1 31.269232996557115 21.53198995936302 43.977666711185314
47 15 0 30.436733389910387 21.771218527557558 44.363621792751616
48 16 0 41.007793509562674 36.361797717963285 46.16447232742882
49 16 1 41.94815530408894 36.38265117681992 45.76719208116528
50 16 0 41.93269086655482 36.51261903619498 44.717300106534665
51 17 0 38.189885579356385 26.9378940851914 22.652780438253558
52 17 1 38.286925958183154 27.632331466490115 22.036241575015104
53 17 0 37.46045878395146 28.00128538232368 21.865418612756038
54 18 0 42.6108561278822 4.031163609396178 20.331534165815828
55 18 1 42.10182661383929 3.3361633331960405 20.12535310007248
56 18 0 41.26372207636072 3.5296962577721525 20.608613655202475
57 19 0 37.416870593736725 12.048145843993378 15.490704799965794
58 19 1 38.25540777511825 12.282465195083065 15.750906162859971
59 19 0 38.53511230403831 13.028959978107936 15.253655918554022
60 20 0 12.999202461134095 45.95075971750156 28.587027647176832
61 20 1 13.881522472540546 45.62727573494531 28.73836150716794
62 20 0 14.178646987533796 46.06523774977375 29.51070188194699
63 21 0 8.528571152835053 43.38930605950813 35.80400538053887
64 21 1 9.161274682012314 42.88056558739954 36.32534164600232
65 21 0 10.028181180225594 43.25678970644085 36.536299221685795
66 22 0 25.80845555838926 19.850533398394 1.9259023672964803
67 22 1 25.77791106181556 18.748441475686374 2.4093242638402357
68 22 0 26.741107022517266 19.70409453301901 2.3629831716505456
69 23 0 45.62240619369229 11.913824250325064 34.4051133922113
70 23 1 46.085346962154624 11.181420541793166 34.032164481086504
71 23 0 45.401353652464316 10.55056185206211 33.97602536774194
72 24 0 36.790374783101065 32.26499516261776 17.688651045552458
73 24 1 37.72232603322839 32.66272289436037 17.82741183724243
74 24 0 38.191044356616025 33.46579980554758 17.422412704285847
75 25 0 46.158348451708775 35.42922916894477 11.63777400331828
76 25 1 45.36347135696596 35.87915678638879 11.983219602600482
77 25 0 44.58316480736266 35.544142380138055 11.650596864621432
78 26 0 25.843182579501207 4.145676005855344 37.99994879303051
79 26 1 25.86760055724659 5.025714056507074 37.379710838113525
80 26 0 25.029103921361425 5.288459808674665 36.63616390427756
81 27 0 26.232441293003724 11.81061465779758 10.075564012303449
82 27 1 26.750480816530906 11.033197415147018 10.091433255567908
83 27 0 27.03259869141208 10.945487965705034 10.965831230796669
84 28 0 9.045467101795325 27.81968804214778 29.763524352838367
85 28 1 8.362779906049884 27.44008084081364 29.24246279201577
86 28 0 8.796673000573511 26.995361314976982 28.57454692632015
87 29 0 29.649822766622158 36.53902436600507 16.561829333910303
88 29 1 29.122046493702598 36.133485466661575 15.86931773111941
89 29 0 29.452730821077104 36.02402494027311 14.96783678835945
90 30 0 48.18977217743836 15.09536421311226 43.99866214722422
91 30 1 48.078815698658914 14.899589591084158 44.92462776920876
92 30 0 47.90188540885819 15.715972793113771 45.34654459752001
93 31 0 29.890099837388764 3.698404492648382 18.557130640505186
94 31 1 29.08682828534245 3.540197117719569 17.90413818474726
95 31 0 28.27988005268503 4.002539208847744 18.183389979766385
96 32 0 10.248450652105166 39.654381226553824 10.148743179654746
97 32 1 9.507370315503751 40.069947701001915 9.681718426620963
98 32 0 9.843636479736942 40.749039854910876 9.223274536364091
