ITEM: TIMESTEP
468
ITEM: NUMBER OF ATOMS
99
ITEM: BOX BOUNDS pp pp pp
0 50.0
0 50.0
0 50.0
ITEM: ATOMS id mol type x y z
0 0 0 27.138574271787007 23.93314259680311 32.39645167007072
1 0 1 26.973794137703397 23.23205777717461 33.063536237218244
2 0 0 26.7038780809984 23.628517334619033 33.89615475845497
3 1 0 26.44232602918274 43.52281180135553 7.666640771831639
4 1 1 26.790122404596662 43.69007963187614 6.679988614145781
5 1 0 26.68478915602617 42.70734964134519 6.307810876244893
6 2 0 39.50230823498465 25.329078066365575 36.55331427771111
7 2 1 38.56496829583596 25.073083633882845 36.46574596462896
8 2 0 38.146575207666544 25.470705935083426 35.58787725012479
9 3 0 11.657184310547462 18.512517590233365 23.241963134953064
10 3 1 11.35377496112873 17.672742552649137 23.59708478690548
11 3 0 11.949814104955493 17.355986136826665 24.308216226019507
12 4 0 33.81458106102408 18.47866557053054 24.571343806980046
13 4 1 33.934710936926095 17.86642403423724 23.854425470323545
14 4 0 34.017004394583374 16.968827855224525 24.201353655415012
15 5 0 18.38209349165903 18.568763791257464 26.21635436100769
16 5 1 18.684913084579534 19.419703122642396 26.582352596452147
17 5 0 17.95750643533864 19.905093978736 26.96542959732388
18 6 0 12.929893873292851 21.67473964298555 15.173002724403398
19 6 1 12.28254386227583 21.513842469365976 14.417960658958412
20 6 0 11.559153427093365 20.81179792225048 14.437027508979947
21 7 0 36.343051673515625 7.3483464622900785 38.95994089093607
22 7 1 37.18695656178291 7.5141951582032105 39.60874105423369
23 7 0 37.09345108100585 8.596799807845223 39.70861470025515
24 8 0 5.5505235864974285 15.430119476382085 8.372395082945927
25 8 1 5.219021126779102 14.561658126660122 8.237008422197382
26 8 0 5.77748473152523 13.86176177482527 8.707643326721822
27 9 0 18.119886151778857 25.487740836182525 27.40568784829853
28 9 1 19.019657250497048 25.738094898642323 27.428459906173792
29 9 0 19.064771956691846 26.48301242296904 27.0105541795644
30 10 0 33.65971686957001 14.038512400066995 9.616938602511466
31 10 1 34.000803378612005 14.340395918964868 10.46985480409573
32 10 0 33.76217168650211 13.70332224229911 11.250305533389158
33 11 0 33.45964641799105 46.36630429650258 13.023128136188303
34 11 1 34.35261549069401 46.352679065015224 13.387385923531303
35 11 0 34.43295065120777 45.671758014585066 14.097725146730081
36 12 0 8.45950030705941 18.60073606640163 46.42031352278212
37 12 1 8.868814928305316 17.87764888295454 47.04450406384303
38 12 0 9.914233572351643 17.836743050970842 46.91361614853147
39 13 0 35.5254755286249 27.057404567807083 46.14082735655041
40 13 1 36.06196877520652 26.297272673722336 46.37702653534458
41 13 0 35.91654257107761 25.56471980161583 45.761738829724294
42 14 0 12.591215756350572 29.635905332524487 22.94942526607807
43 14 1 13.311488081922 29.2671579802498 22.330788992466545
44 14 0 13.776482434680643 28.394648848795136 22.083270773812195
45 15 0 31.551240383965304 22.223938454250057 43.37915869271383
46 15 1 31.265072610731288 21.529242119613585 43.97583442065578
47 15 0 30.42354339364905 21.75746125791684 44.37839962908004
48 16 0 41.05728227214347 36.38744182337656 45.944779339640604
49 16 1 41.95668462397053 36.381857147826025 45.77263128241601
50 16 0 41.74788611601343 36.50181408912181 44.85029641482016
51 17 0 38.1955908503751 26.911882007283225 22.674284029153643
52 17 1 38.28880306614991 27.631307621594253 22.03694948403582
53 17 0 37.435210204425125 28.02045573084314 21.85341335124759
54 18 0 42.69492757528144 4.051676208025529 20.307572614708047
55 18 1 42.099437467635205 3.3372347122685992 20.12732021125313
56 18 0 41.22044058364203 3.488690025956274 20.602463514976414
57 19 0 37.376676155369964 12.043597525886414 15.472690576388185
58 19 1 38.26089082850921 12.279649154727151 15.756885049665646
59 19 0 38.53533001399715 13.059026427989155 15.22764755309025
60 20 0 12.988881214666009 45.94211933963769 28.526945541530598
61 20 1 13.888668213314842 45.633712439527216 28.72567290128574
62 20 0 14.237001955238693 46.066712318899924 29.511990200910212
63 21 0 8.446699769873847 43.40810429693437 35.782221504563104
64 21 1 9.152439421737173 42.87321794829265 36.340068181427576
65 21 0 10.088926060064361 43.26059943698178 36.5846726266137
66 22 0 25.38856801108327 19.45652531774614 1.991348848076443
67 22 1 25.82159298219153 18.81300715039681 2.398989497524617
68 22 0 26.460936649998775 19.06771993528956 2.459361253284972
69 23 0 45.63397141641916 11.98348651964399 34.42690126957018
70 23 1 46.08561535326209 11.181679182111884 34.032044849049996
71 23 0 45.388121877108844 10.47664650057359 33.953025703402616
72 24 0 36.7609212338034 32.2728099812302 17.655205000869103
73 24 1 37.74155269010835 32.65266624499395 17.8363002499739
74 24 0 38.20663852699191 33.51738067864657 17.366763313266233
75 25 0 46.13849780557902 35.39155544764323 11.604051855807533
76 25 1 45.36518396555786 35.88442065589324 11.987677396630454
77 25 0 44.57934445547353 35.49845820840617 11.61083392583815
78 26 0 25.782489020629374 4.194111873900963 37.92487731864756
79 26 1 25.867886956420328 5.023459583461237 37.38156079887712
80 26 0 25.083199326160962 5.275168804949701 36.68153444701695
81 27 0 26.194623459606586 11.848399883471327 10.02765549134854
82 27 1 26.748911527118587 11.033198816582278 10.091755401165313
83 27 0 27.0736832927575 10.898367448439613 11.00601036862391
84 28 0 9.057670796171294 27.86631058172121 29.83117793076739
85 28 1 8.362203993222465 27.44036383829153 29.243628590006406
86 28 0 8.779827589818696 26.944710290654825 28.501752896992492
87 29 0 29.549782785519554 36.54330152549062 16.64713937409491
88 29 1 29.117050685522045 36.14360442110969 15.863059790119777
89 29 0 29.327270076544323 35.98256140612713 14.910850027375089
90 30 0 48.21403896664297 14.987079891104626 43.937732160974356
91 30 1 48.07857953595577 14.906789256327306 44.920262746920194
92 30 0 47.88288728259026 15.709639056038071 45.479809690268524
93 31 0 29.896843860770137 3.795015086059493 18.706308520378588
94 31 1 29.090055898796162 3.5277433754887597 17.887603166365206
95 31 0 28.219899860769473 4.101195532966047 18.301083336314527
96 32 0 10.25331823573512 39.61225324054106 10.182248528591265
97 32 1 9.508514272906165 40.06909745572833 9.682599008389241
98 32 0 9.820132832782104 40.80505771867054 9.175365875605596
