ITEM: TIMESTEP
485
ITEM: NUMBER OF ATOMS
99
ITEM: BOX BOUNDS pp pp pp
0 50.0
0 50.0
0 50.0
ITEM: ATOMS id mol type x y z
0 0 0 27.12769854639465 23.952283694318524 32.43187385277515
1 0 1 26.975954284017103 23.22926514388077 33.062050158658444
2 0 0 26.698751836651898 23.654649171864087 33.908755921058855
3 1 0 26.455937342768937 43.55731502118201 7.639010789562192
4 1 1 26.782614732477388 43.682589585435146 6.691058454736308
5 1 0 26.76182982795023 42.791365010319026 6.125347006671587
6 2 0 39.57075593458795 25.281783204333266 36.66940245651112
7 2 1 38.555165538032014 25.07338360796282 36.45655636860883
8 2 0 38.27781999608062 25.523502739252006 35.566904465693625
9 3 0 11.561206318696 18.510678599268246 23.220056889812753
10 3 1 11.249936595728238 17.632608374727738 23.554137455415926
11 3 0 11.869405905921768 17.377481932683157 24.26692818501714
12 4 0 33.811230091336654 18.492375757815957 24.59547728082721
13 4 1 33.93414080592169 17.86480413497487 23.853696689971663
14 4 0 34.01609304530912 16.96788049067797 24.213465542135427
15 5 0 18.440498849947097 18.543101071432154 26.282647008116122
16 5 1 18.779190179837887 19.403260387601186 26.609316341926686
17 5 0 18.036071071577172 19.85113409294726 27.088192819765595
18 6 0 12.830279752119836 21.544283547116837 15.230376373674906
19 6 1 12.283622273547348 21.523551247525347 14.400634773120634
20 6 0 11.641676935161987 20.794302022340464 14.595649551058761
21 7 0 36.41470642657936 7.222644146423827 38.994095874815734
22 7 1 37.17184623114874 7.52509038456719 39.60067231545034
23 7 0 37.25672517417274 8.53425617133749 39.81921178759718
24 8 0 5.569928603098476 15.49167059868613 8.379133392998938
25 8 1 5.2144706539939305 14.550469607560144 8.234816833244613
26 8 0 5.8170090833762425 13.96682130237856 8.723415461631745
27 9 0 18.352584114437153 26.624185816476594 26.8042493613205
28 9 1 18.96167315572863 25.769358782510437 27.470143882432936
29 9 0 20.054614621713664 25.658384330732552 27.17824974547263
30 10 0 33.654559979409804 14.061968631522465 9.515513158583316
31 10 1 33.99333036614221 14.357820668137052 10.455141990628098
32 10 0 33.68148788524435 13.65654023081667 11.11436134803477
33 11 0 33.429648166800035 46.35111955128977 13.026855896892426
34 11 1 34.35957655477085 46.35641023218484 13.388952230343206
35 11 0 34.380816645595374 45.66362938848032 14.086306733095736
36 12 0 8.47989025037225 18.611245931148087 46.40695162541835
37 12 1 8.868630708987329 17.872529069962848 47.04950821489501
38 12 0 9.895447955126022 17.907545185782787 46.849060609195604
39 13 0 35.514389979969486 27.068689869210647 46.132089040572794
40 13 1 36.09365450869191 26.326129196466617 46.395893060256974
41 13 0 35.92235620066611 25.600317725210957 45.77333169211946
42 14 0 12.663146131685467 29.21699209588113 22.981764786869196
43 14 1 13.323742066172331 29.30482171618917 22.29848596024408
44 14 0 13.473380092190641 28.3634415462453 22.388389019993735
45 15 0 31.52828026592385 22.216544399652197 43.38488462161967
46 15 1 31.234422874335856 21.496637222376492 43.961943311573854
47 15 0 30.400225223485347 21.76437487797001 44.37406264844146
48 16 0 41.16862638134116 36.34868536507227 46.23463042373938
49 16 1 41.93221261070657 36.38611873565279 45.75322789903674
50 16 0 42.038179072907816 36.49105580032902 44.8737734961153
51 17 0 38.177000496214326 26.89179471764043 22.695577944848246
52 17 1 38.2970580966771 27.61981511103379 22.046779023146488
53 17 0 37.41259456427551 28.017376266445783 21.860357248405705
54 18 0 42.744659202712405 4.0872489333361 20.307433577182326
55 18 1 42.09343222262326 3.3290427866368315 20.1272807985319
56 18 0 41.28916968048161 3.554887527014119 20.6151351510824
57 19 0 37.36060896860288 11.988464011127888 15.514530831220709
58 19 1 38.28559085439513 12.272553559803582 15.780896547558749
59 19 0 38.56907452821599 13.058915174905522 15.247665278792201
60 20 0 13.101860903868959 46.0556804366597 28.377153600473868
61 20 1 13.964142803684544 45.67033136986763 28.604396953595845
62 20 0 14.303849316114434 46.186133957324216 29.36502990360672
63 21 0 8.484714212682302 43.48107480052128 35.97040120910205
64 21 1 9.074901363830184 42.81143522712662 36.46418128651657
65 21 0 9.903006827781866 43.36482605726683 36.65136504110324
66 22 0 25.931367687379655 18.087862790260377 2.034794266393618
67 22 1 25.82039409959959 18.900807339897014 2.450804296896382
68 22 0 25.927299166565664 19.054855385326594 1.5560677916882786
69 23 0 45.63105798854727 11.985818025951845 34.428048733648495
70 23 1 46.0871200162414 11.182746106458538 34.03075684677644
71 23 0 45.389872931225554 10.456241742432272 33.94523276579389
72 24 0 36.96617189902126 32.429256071107396 17.54983547499807
73 24 1 37.886933370415925 32.599061476712855 17.876588029921848
74 24 0 38.18393464329953 33.360101360173566 17.274260216968017
75 25 0 46.14986702129501 35.418251891137146 11.627253772632496
76 25 1 45.371040716972686 35.88205113639676 11.98429426970792
77 25 0 44.506990696958745 35.51735810922891 11.622689290986841
78 26 0 25.397015758086056 4.289963489037135 37.60123299138425
79 26 1 25.87123064579268 5.004903150466313 37.397454668756076
80 26 0 25.39758269694804 5.468132239403226 36.749989335861486
81 27 0 26.194443746805216 11.863030774325846 10.076249143842182
82 27 1 26.737849827817794 11.02552718583517 10.085809265454087
83 27 0 27.06055389268035 10.925248091245116 11.030222772021995
84 28 0 9.104070663081233 27.83917482781861 29.79132924333134
85 28 1 8.350287562051756 27.442637875363204 29.253932411018415
86 28 0 8.803581696351728 26.939738733776636 28.494321293446113
87 29 0 29.63134758898466 36.67863424130137 16.28718269079564
88 29 1 28.943854763886847 36.183466195872775 15.841499442603995
89 29 0 29.40686035245838 36.27471366592865 15.002479248995485
90 30 0 48.18227203453232 15.161491319031274 43.98929726434122
91 30 1 48.080621988842125 14.891208670773771 44.928136631140745
92 30 0 47.89496649185049 15.78954471147853 45.32401651506207
93 31 0 29.79074980699828 3.822692462292269 18.6951476114675
94 31 1 29.104346207674173 3.5341674077716787 17.909474564046906
95 31 0 28.083454689911274 3.9359309337502597 17.982441626531724
96 32 0 10.292564367467127 39.68973463705277 10.130102080256409
97 32 1 9.504580904715114 40.06165689151417 9.687558508314375
98 32 0 9.840913289138884 40.84911981326379 9.145417055606465
