ITEM: TIMESTEP
488
ITEM: NUMBER OF ATOMS
99
ITEM: BOX BOUNDS pp pp pp
0 50.0
0 50.0
0 50.0
ITEM: ATOMS id mol type x y z
0 0 0 27.11376859010409 23.950269291681597 32.47910725941282
1 0 1 26.97609214887467 23.228769819032507 33.06264191473066
2 0 0 26.713964790171755 23.66470641391459 33.85659207820841
3 1 0 26.49128412923694 43.45787638884513 7.45460263103099
4 1 1 26.781937094132736 43.679054504583306 6.689343414437634
5 1 0 26.73183800594984 42.94713335668456 6.331036873567524
6 2 0 39.4219521710168 25.2076115559351 36.709826120287914
7 2 1 38.56471980924411 25.083567611365527 36.44445061077491
8 2 0 38.28172185236232 25.436644718965596 35.710527851064455
9 3 0 11.531324116076958 18.46651526846886 23.234751312626845
10 3 1 11.233250069707822 17.62721870358185 23.547029932609185
11 3 0 11.830676303942608 17.394036418856455 24.22909340166908
12 4 0 33.81346369816293 18.480611293577198 24.582152360127143
13 4 1 33.93392940275798 17.86454744071574 23.855079107510676
14 4 0 34.014744766186176 16.98129918811917 24.20924769050465
15 5 0 18.475989113660365 18.56828345454608 26.300937544212324
16 5 1 18.792281974411605 19.398841464018908 26.615083831475772
17 5 0 18.09144038621054 19.831599121800803 27.090583648963843
18 6 0 12.91391698910863 21.706361113941426 15.093457920986813
19 6 1 12.281740669553852 21.508903175340876 14.421410986034132
20 6 0 11.588201108827647 20.867985333212168 14.388740089441304
21 7 0 36.53084702713031 7.352576513549821 39.10013404341456
22 7 1 37.16895105886887 7.5301406150216375 39.59957355910476
23 7 0 37.18563797644732 8.32092719517367 39.733668985894816
24 8 0 5.532988470692267 15.435511038940735 8.359466778364789
25 8 1 5.218522506448909 14.552085744117122 8.237436398865134
26 8 0 5.786534345743771 13.994811756109979 8.69882899732707
27 9 0 18.671853677558598 26.423778845593628 26.99425877304516
28 9 1 18.958943483555625 25.797061856451776 27.453452356438195
29 9 0 19.833224198935717 25.566021914374765 27.29840470564712
30 10 0 33.72445242800407 14.158614640395387 9.587545627271922
31 10 1 33.98328145695909 14.347842250615994 10.448273372237573
32 10 0 33.734779121158454 13.76682570410189 11.064986260386672
33 11 0 33.48396741275491 46.3447095646279 13.054826555865535
34 11 1 34.357437113074646 46.3550363568553 13.389937324569287
35 11 0 34.366184757824186 45.69878535378143 14.045813134026421
36 12 0 8.565268750238923 18.467716352605613 46.53019962938173
37 12 1 8.876278135229391 17.880993804195413 47.04019206571404
38 12 0 9.687460406585888 17.91552624926813 46.87527116098264
39 13 0 35.5299917487416 27.051067153563814 46.139781665770464
40 13 1 36.09802403752481 26.331807602750423 46.3978951776544
41 13 0 35.929099417175216 25.62063190612355 45.78976109125294
42 14 0 12.602706430716868 29.55011874639226 22.956975974144758
43 14 1 13.312501396287995 29.28410108248039 22.313061359204475
44 14 0 13.707138834036229 28.39013759249868 22.146637763772976
45 15 0 31.52403204435362 22.205337049738986 43.39089577419505
46 15 1 31.228221695857687 21.491662151889468 43.95925574698112
47 15 0 30.404931750673043 21.759101246195442 44.37049970381487
48 16 0 40.97390085156219 36.36414608875278 46.15323650185127
49 16 1 41.95480645884976 36.384062511543064 45.7666167992704
50 16 0 41.873287103963655 36.511983072017685 44.74147859465825
51 17 0 38.18299299230215 26.91333579770925 22.676087235328012
52 17 1 38.29571503966505 27.616814019482266 22.04985797260602
53 17 0 37.44488238695723 28.004394264376096 21.86590946974898
54 18 0 42.67662349294559 4.039851080565246 20.308070197637452
55 18 1 42.09432326333268 3.330285160652116 20.12808469123702
56 18 0 41.347120565226604 3.5769356432260992 20.603857719391055
57 19 0 37.422352473175664 12.01891560398168 15.52267295917338
58 19 1 38.288674736799024 12.27184136352593 15.783971489764166
59 19 0 38.53419419431857 13.008739820580061 15.272562214358889
60 20 0 13.14411335780374 46.067508028031696 28.358429480241416
61 20 1 13.97750281372362 45.678649725626165 28.583370666297863
62 20 0 14.300841812478575 46.190558741344965 29.312216981862132
63 21 0 8.401019299526883 43.241987146340726 36.0491205624782
64 21 1 9.066377906773415 42.8317169381617 36.478656761022144
65 21 0 9.869867862126535 43.13146752795518 36.74965097361216
66 22 0 26.40443805506493 18.000902867415718 1.906844391261166
67 22 1 25.80498010058836 18.913139699544487 2.4918299783376683
68 22 0 25.69898347471278 18.948834331656666 1.021865969674412
69 23 0 45.61722517178287 11.861814079842631 34.38737425093693
70 23 1 46.08645202507146 11.182725398335686 34.03067905219667
71 23 0 45.41866043334052 10.580390111284574 33.98207726963098
72 24 0 37.045305609091294 32.18783932243043 17.816848384553644
73 24 1 37.892235952732044 32.61229903898337 17.84968255504987
74 24 0 38.477132683944504 33.23492098892402 17.517781186290716
75 25 0 46.118875531539 35.437206507852224 11.641818604852377
76 25 1 45.370336228571425 35.879416810406205 11.98167142225087
77 25 0 44.55538614967135 35.54201374707983 11.646491164831763
78 26 0 25.41414176315348 4.157843366454249 37.70804237235987
79 26 1 25.856208660485233 5.001987163618811 37.38969969643518
80 26 0 25.61752968233195 5.645400465431456 36.76709385460723
81 27 0 26.23664972341579 11.798973666347731 10.083268344671627
82 27 1 26.734748838721636 11.027889780716535 10.089695027260456
83 27 0 27.03255678350224 10.936369829215453 10.956896272813674
84 28 0 9.03076063010784 27.795194620039304 29.731753838880827
85 28 1 8.356483254549339 27.442154800919926 29.254038915998898
86 28 0 8.755379375836517 26.992229754662276 28.574040911437216
87 29 0 29.467803284295492 36.67066962257099 16.552364530383834
88 29 1 28.940436707663704 36.204938660905064 15.827565248296143
89 29 0 29.14913791497918 36.133293859165065 14.848459799675096
90 30 0 48.19196374928464 15.066820185028336 44.01465759141049
91 30 1 48.07965357113279 14.903744318977399 44.9240198078833
92 30 0 47.903188580999306 15.684581778499089 45.36857670801935
93 31 0 29.47979784509936 3.7795525561443672 18.470568212158923
94 31 1 29.10207286832911 3.5434581412972186 17.923070363397283
95 31 0 28.428194037412712 3.8239408031713866 17.993236612719883
96 32 0 10.24701576565014 39.70867116963327 10.106497765340478
97 32 1 9.509801048335197 40.06361684748736 9.687069748304637
98 32 0 9.802396984091292 40.79928874519297 9.176329594852932
