ITEM: TIMESTEP
552
ITEM: NUMBER OF ATOMS
99
ITEM: BOX BOUNDS pp pp pp
0 50.0
0 50.0
0 50.0
ITEM: ATOMS id mol type x y z
0 0 0 27.114604747444886 23.97500811054684 32.483081184533454
1 0 1 26.981540838250304 23.22852653904148 33.067948520820885
2 0 0 26.709521290619612 23.647283724170556 33.87507937913277
3 1 0 26.459185607931705 43.28646895246759 7.3969220002003775
4 1 1 26.77073370121854 43.68200142224021 6.695177147361742
5 1 0 26.815415403627096 43.06716674297425 6.150404024407916
6 2 0 39.302741515823186 25.001654548822156 36.98425207812497
7 2 1 38.55985000902303 25.0897456472498 36.417351575785425
8 2 0 38.6634740417427 25.588059410784158 35.64678915713355
9 3 0 11.02133190359925 18.375603810886485 23.096538784192987
10 3 1 10.829274780346859 17.480332749497144 23.37612190717592
11 3 0 11.433202827904745 17.322867421878648 24.106940131747752
12 4 0 33.811523134251956 18.482531894319337 24.59957701065015
13 4 1 33.9303493889721 17.86213630755716 23.859825729546493
14 4 0 34.01539787859064 16.9605370703364 24.22231808800727
15 5 0 18.855795540798294 18.425835934841874 26.49359099210252
16 5 1 19.147091755560297 19.32289013105696 26.731362415542755
17 5 0 18.62466780164475 19.607375052391472 27.49860233391774
18 6 0 12.849074788384748 21.62498947822997 15.120330044419308
19 6 1 12.282584467334342 21.51705988142299 14.396263325133893
20 6 0 11.642805674346791 20.852463386724203 14.497826481232668
21 7 0 36.53263277633035 7.375551802190053 39.10872454482765
22 7 1 37.164809365090704 7.526088014860212 39.60181683319445
23 7 0 37.22077806697278 8.302347025153972 39.757142887618336
24 8 0 5.457047800539388 15.461709002535807 8.30315762463373
25 8 1 5.214070602268661 14.543054829531025 8.23423458321455
26 8 0 5.873394776584157 14.059196296542925 8.7516709671782
27 9 0 18.22965614829692 26.145919665596953 27.296275005404254
28 9 1 19.068656335664702 25.97425337697609 27.510369509457202
29 9 0 19.7333283972352 26.448091029546337 27.06440859129369
30 10 0 33.813417893192614 14.379079328927872 9.414706950525728
31 10 1 33.9388545094957 14.406538101193908 10.352146384456473
32 10 0 33.52856885059199 13.686874693868495 10.802002535651312
33 11 0 33.48740370176384 46.371019204688665 13.032156818107888
34 11 1 34.36694503238417 46.3645241611432 13.395151526391208
35 11 0 34.338524409572564 45.67736322175832 14.060821150719844
36 12 0 8.475314023966513 18.463451983060313 46.54895705952074
37 12 1 8.880318705829184 17.876635525127806 47.04404962777167
38 12 0 9.706927462440673 17.986887527623743 46.804116125374705
39 13 0 35.56488118271307 27.117422272305376 46.21312493591322
40 13 1 36.21769243479014 26.454496507316886 46.46534501408451
41 13 0 36.04485096025409 25.68693285963686 45.90313050813647
42 14 0 12.660745276807267 29.308459293896462 22.96979375083313
43 14 1 13.311824997665589 29.339484477131034 22.251731877234118
44 14 0 13.507303435878498 28.39723606107589 22.34326343356137
45 15 0 31.487905062587853 22.10576422390818 43.41352418484433
46 15 1 31.09661378831338 21.366430209031318 43.900533089233875
47 15 0 30.330680096418067 21.706879805353797 44.38418295807758
48 16 0 41.09192628698831 36.3410641790726 46.316363869142734
49 16 1 41.95428210128212 36.39037959739152 45.7573746675046
50 16 0 41.80803903434463 36.51620165682965 44.73852707335406
51 17 0 38.170761630288844 26.841954389164847 22.742681853720804
52 17 1 38.31933267703838 27.561739285049963 22.09901323711174
53 17 0 37.45663220137883 27.97034057662995 21.894316409562023
54 18 0 42.74515679288124 3.98249054425269 20.24260584800092
55 18 1 42.09475046170203 3.3202198033731807 20.132071175789935
56 18 0 41.36936054440738 3.6666063499461545 20.65770970899737
57 19 0 37.49930992180855 11.937088168775702 15.647330038909999
58 19 1 38.38656315929734 12.233929442780003 15.888199555649942
59 19 0 38.61645778769082 12.995077460679267 15.335654292851117
60 20 0 13.614652298953285 46.34660367606173 27.614832239053428
61 20 1 14.268906677401576 45.84621467410002 28.112602251948573
62 20 0 14.705042618024635 46.50014566583898 28.659946510651928
63 21 0 8.074970540254972 43.131352807733606 36.70915885979247
64 21 1 8.765722995900807 42.641358807843154 36.960220716671394
65 21 0 9.464396671788494 43.050870972731545 37.32808357534504
66 22 0 24.99744016913545 18.866247778792065 2.4629700426672674
67 22 1 25.84504124276857 18.90463567709143 2.384530408440519
68 22 0 26.421212347202776 18.320709841323133 2.0485834336558795
69 23 0 45.61378370265914 11.87993110825265 34.39259693269477
70 23 1 46.09148305422845 11.183869162593197 34.02427498140923
71 23 0 45.44103981509047 10.53959985826477 33.96110677204912
72 24 0 37.58137988482577 32.20778672593116 17.752401122604272
73 24 1 38.45020100855783 32.4366142916188 17.969896326600104
74 24 0 39.004256280594674 32.76461910155275 17.308282076005018
75 25 0 46.148313405978115 35.41928826617786 11.625528122195147
76 25 1 45.378134751207575 35.88223115223466 11.97688978918806
77 25 0 44.54708224167717 35.55139548694891 11.651612336810443
78 26 0 25.125691422384087 5.231819286605661 36.742190207812264
79 26 1 25.803404481601543 4.947801731207254 37.39520862907711
80 26 0 26.67426608156134 5.403147050928218 37.64092600411932
81 27 0 26.20638386467349 11.824320359609747 10.098509306837006
82 27 1 26.685191282789617 11.005335386045257 10.082650133245247
83 27 0 27.033025089710023 10.918836093350471 10.959807334585514
84 28 0 9.078952943684287 27.78686148874235 29.728006117873477
85 28 1 8.325837106281204 27.444798984593945 29.28676273269349
86 28 0 8.680544673371493 26.975310532960844 28.55968771603683
87 29 0 28.9669543179713 37.081413997595256 16.095212193426768
88 29 1 28.36609178539608 36.408803427849364 15.707905403140693
89 29 0 28.4218188294302 36.70461738740863 14.777439362076615
90 30 0 48.187182427309885 15.109194577204164 44.01923906658944
91 30 1 48.083309449831134 14.90014619182306 44.93266717058386
92 30 0 47.9058325916266 15.721599498352575 45.32006476888009
93 31 0 28.767348598631465 3.978879787155563 18.414955552820132
94 31 1 29.13131281840228 3.54907400782584 17.96660517567454
95 31 0 28.612632000356783 3.3840240208353594 17.439460740203113
96 32 0 10.339416434943988 39.76562869338012 10.080628572034659
97 32 1 9.50797151942794 40.059752035691744 9.68962909488021
98 32 0 9.72652639085448 40.81501708773929 9.149233551963086
