ITEM: TIMESTEP
554
ITEM: NUMBER OF ATOMS
99
ITEM: BOX BOUNDS pp pp pp
0 50.0
0 50.0
0 50.0
ITEM: ATOMS id mol type x y z
0 0 0 27.120857265373772 23.962189765517028 32.46560457574345
1 0 1 26.98116533553088 23.23094561867517 33.06939338647008
2 0 0 26.711841708424576 23.62151873271009 33.87269323388006
3 1 0 26.42017554150826 43.216193729269484 7.46953764409369
4 1 1 26.772745123397563 43.69304662612057 6.695331519216193
5 1 0 26.81843539180211 42.96062834918749 6.070950194576863
6 2 0 39.250671105819315 25.009503073894823 36.94170610297907
7 2 1 38.56148967558833 25.088049112645322 36.420685989721356
8 2 0 38.69478604554034 25.60866797724799 35.62939266309833
9 3 0 10.982867425087708 18.346108722676764 23.081321345688664
10 3 1 10.820376203806465 17.479412797133577 23.372270518658237
11 3 0 11.406025871134025 17.295858673422032 24.099574827077348
12 4 0 33.81562454627023 18.463853524992427 24.568350291431706
13 4 1 33.93005816911743 17.862132025144337 23.86285201580127
14 4 0 34.01419781808243 16.977562908025362 24.208292913837006
15 5 0 18.887106210221624 18.444114096199385 26.48982300400833
16 5 1 19.15366477887516 19.31895766158318 26.737482003029733
17 5 0 18.67401223491214 19.60341571117921 27.473401383765932
18 6 0 12.950016624946953 21.73010156908148 15.103764091282944
19 6 1 12.281821439301492 21.511554105165057 14.40397468383909
20 6 0 11.554227825371413 20.83648014760428 14.383052189499981
21 7 0 36.38689809860996 7.433073932723012 39.00864589598872
22 7 1 37.1776842588584 7.509588652239015 39.60917682334537
23 7 0 37.159644819737956 8.50701092674099 39.74148891988388
24 8 0 5.414462168257144 15.413828639433989 8.278520663937611
25 8 1 5.217292152467543 14.548197188795385 8.235897346960122
26 8 0 5.862634697173128 14.023189033792162 8.748067224313642
27 9 0 18.3648279159705 26.330764475193785 27.163691918786217
28 9 1 19.07349338819565 25.981206901881297 27.51339663047389
29 9 0 19.555561600842868 26.25250720367087 27.17699310334421
30 10 0 33.83243996646455 14.39981264880508 9.472210849801387
31 10 1 33.936573593051996 14.407574389033755 10.344183996677607
32 10 0 33.52270121598235 13.681136078216344 10.814697600695833
33 11 0 33.51905545971289 46.391801607590594 13.024579054637663
34 11 1 34.36346319004403 46.36294429078924 13.395612629599892
35 11 0 34.36641798374779 45.68650416520842 14.063289754865318
36 12 0 8.393816509913076 18.482760713001948 46.543760911861675
37 12 1 8.880145805447238 17.877527638637808 47.043235323773295
38 12 0 9.791017016489164 17.95322614715703 46.82261916520932
39 13 0 35.5893814597791 27.119157525879984 46.23660106267575
40 13 1 36.21835948326175 26.458021056845453 46.46477548767047
41 13 0 36.0689305052184 25.68896856451056 45.92533573916309
42 14 0 12.624972031734746 29.520624834969542 22.939991033073717
43 14 1 13.304786679334004 29.32651039521627 22.262278567781024
44 14 0 13.651138185705396 28.411854905958656 22.181460385046922
45 15 0 31.49011190966845 22.08194648877907 43.41709700160464
46 15 1 31.092032356120473 21.365276379007632 43.8988276554636
47 15 0 30.338049549825428 21.68718818439644 44.38211652521497
48 16 0 41.069704328525305 36.36102906394594 46.15463930973899
49 16 1 41.96525886132458 36.38954913140532 45.7636284446201
50 16 0 41.65597137627661 36.51200414773723 44.80055402590976
51 17 0 38.186607275571426 26.864161520627853 22.721007734665562
52 17 1 38.31616732149369 27.559253506171714 22.101856538378527
53 17 0 37.50218356160422 27.95657355273817 21.898451387761426
54 18 0 42.74094169493702 3.9448695812847174 20.221921114518736
55 18 1 42.09694016526373 3.3234840630923266 20.13336702267474
56 18 0 41.34146368972173 3.648122287072706 20.659229143491274
57 19 0 37.54764908632003 11.957479450050801 15.65687359496863
58 19 1 38.38737457968546 12.232809293751846 15.890072761814118
59 19 0 38.60517131941841 12.972324914285933 15.349749577336326
60 20 0 13.626015646337114 46.32447194519415 27.585981542242973
61 20 1 14.27665700520523 45.854770956004 28.099704938361572
62 20 0 14.725468661263367 46.47740673115447 28.643959447158718
63 21 0 7.923479762234287 43.113236210541224 36.66480869007465
64 21 1 8.75784482361069 42.639275176380615 36.974024046856385
65 21 0 9.585999230358173 43.01127191579429 37.40323441746989
66 22 0 24.893739290809723 19.112824552907828 2.8533004930802184
67 22 1 25.82460868811533 18.91737478206253 2.3495645875406574
68 22 0 26.850520850919715 17.87332766017686 2.2137053944254506
69 23 0 45.599946102357556 11.894066388501809 34.40104541071761
70 23 1 46.093421000109906 11.183625852262292 34.023533190417965
71 23 0 45.42683616150592 10.529226599880182 33.96100249115389
72 24 0 37.40080729549569 32.100532278076514 17.92602032880587
73 24 1 38.46041884989578 32.43316803530417 17.96161859806045
74 24 0 39.30216426392147 32.838912808672454 17.31054731131055
75 25 0 46.130187110942536 35.40112341995556 11.609086208682568
76 25 1 45.37670302126507 35.883958173819885 11.978037762728725
77 25 0 44.59255787895818 35.54309177235643 11.646954799384567
78 26 0 25.116281935517936 5.355369540544386 36.64665369280741
79 26 1 25.801116346913652 4.936771064516878 37.40171205690885
80 26 0 26.717998027231776 5.455033267876853 37.63229188233791
81 27 0 26.20359142550497 11.810900591221007 10.068778518429893
82 27 1 26.683477224473314 11.007084339121189 10.085945002134396
83 27 0 27.03877631596725 10.893731108110831 10.93405362265586
84 28 0 9.060165668068963 27.802181635523418 29.75276067226451
85 28 1 8.328554478253317 27.443854386342622 29.285899642781178
86 28 0 8.640573056296963 26.975578667593467 28.563709247567083
87 29 0 28.89821013464156 36.9791953462533 16.266964877166227
88 29 1 28.362081343170715 36.432283150020766 15.695269734686226
89 29 0 28.261581547157856 36.550406066200786 14.73923738257443
90 30 0 48.204689630457985 15.019182769219558 43.99039494206259
91 30 1 48.08303809944825 14.906965174145821 44.92861396048663
92 30 0 47.8943473759538 15.703158538235913 45.41657713436554
93 31 0 28.61657445332386 4.159555766851261 18.606036054705672
94 31 1 29.145008401056945 3.543350273159307 17.96596836178968
95 31 0 28.542484482555803 3.290439160120023 17.26116354489852
96 32 0 10.326111033210244 39.73944665903092 10.098231248060214
97 32 1 9.511547791847775 40.06387657935788 9.68714527784632
98 32 0 9.682228367290879 40.7755305576176 9.171010972633628
