ITEM: TIMESTEP
567
ITEM: NUMBER OF ATOMS
99
ITEM: BOX BOUNDS pp pp pp
0 50.0
0 50.0
0 50.0
ITEM: ATOMS id mol type x y z
0 0 0 27.140779643197607 23.925076808150717 32.410930545199605
1 0 1 26.98208427153454 23.236555705468795 33.070471142250405
2 0 0 26.69633480451832 23.569810256226635 33.934317266530904
3 1 0 26.445013107843977 43.3072032027938 7.4427581597447965
4 1 1 26.767234128274232 43.67859939027254 6.696025509696271
5 1 0 26.853586510439342 43.1001670699072 6.054200031875314
6 2 0 39.34581200132187 25.018335362353625 36.98053675078512
7 2 1 38.5500964223026 25.08763635740751 36.41184179964264
8 2 0 38.822440128328914 25.616144799894553 35.68334932831237
9 3 0 10.852879480187989 18.36173499277954 23.006963097960817
10 3 1 10.73901712936249 17.449927483361886 23.339020495586695
11 3 0 11.314874440440802 17.23007581661245 24.089974880750997
12 4 0 33.80989381869171 18.493607546102734 24.60215562905215
13 4 1 33.92944108307847 17.860997179354666 23.862076586089525
14 4 0 34.016762346939586 16.95320588116774 24.2103492208098
15 5 0 18.975217050837852 18.390402084688194 26.50456467000686
16 5 1 19.226914750081047 19.301202102176635 26.760683573707258
17 5 0 18.774136767381677 19.579667297661636 27.591407275557074
18 6 0 12.89269258299054 21.676859558737863 15.100964586994355
19 6 1 12.28222796531761 21.51443440816229 14.396874977257044
20 6 0 11.606297391362652 20.85136742363099 14.440494171916242
21 7 0 36.50839337055672 7.39280481777313 39.09411456401821
22 7 1 37.16828779802591 7.522068705542046 39.60530025484086
23 7 0 37.18205936091727 8.334239325164026 39.733058079237
24 8 0 5.4089039353965696 15.512401408120395 8.26367264201726
25 8 1 5.217812404875098 14.542606188634144 8.236644165664224
26 8 0 5.84652858616829 14.002146983233793 8.738838134659028
27 9 0 19.12765254187376 26.821096256218034 27.018675778181528
28 9 1 19.013502795805678 26.03180575031981 27.51788154381651
29 9 0 20.008074429704024 25.69346060540767 27.459639165755608
30 10 0 33.8035771321915 14.386278115947894 9.353113067335073
31 10 1 33.93005628874923 14.423138908425365 10.330519317683937
32 10 0 33.485162346774 13.678462205087408 10.731519154977942
33 11 0 33.489566461462466 46.43409616050224 12.971468679326843
34 11 1 34.36406435062946 46.36271339579159 13.398421498149842
35 11 0 34.4147280321332 45.68225775072626 14.088272037340534
36 12 0 8.315995345267291 18.45540149615777 46.582595160943534
37 12 1 8.885090989377877 17.8818378655462 47.038385848052165
38 12 0 9.788423570035787 17.911037535416668 46.86343541750065
39 13 0 35.58887387339602 27.17545594554588 46.26644895439607
40 13 1 36.242530875688914 26.483213537152494 46.477915805079505
41 13 0 36.11780716121448 25.671454614634396 45.95418600249199
42 14 0 12.612415077553573 29.664683991396537 22.906249111669005
43 14 1 13.298166625377444 29.324188772146268 22.260564587942316
44 14 0 13.735920579880613 28.446733421545964 22.073614096607745
45 15 0 31.502021411405398 22.062590738219583 43.406550289744494
46 15 1 31.064023692087368 21.339383891920733 43.88656024750737
47 15 0 30.30607322706846 21.665539499860866 44.399843498419365
48 16 0 41.05859151698265 36.35974911011394 46.16565277999776
49 16 1 41.97075692889927 36.391048514113706 45.759863661947314
50 16 0 41.58905277331798 36.5077068575293 44.852456839262246
51 17 0 38.187360363430386 26.818732253963535 22.760581665546823
52 17 1 38.323567291833285 27.54635645511063 22.112943785994936
53 17 0 37.46164833151402 27.97334484819418 21.89111649685901
54 18 0 42.842696916420344 3.944159522315623 20.176665459530277
55 18 1 42.093652565880866 3.3252089317248297 20.138101756229258
56 18 0 41.31397924918205 3.5924604374194797 20.640363462177724
57 19 0 37.50680974167936 11.919772981793122 15.66887996401506
58 19 1 38.41066409488808 12.224663326818582 15.913677134189081
59 19 0 38.64162593921777 12.991214058158722 15.35430968815743
60 20 0 13.704364921205228 46.32932038187993 27.40497180654927
61 20 1 14.33516563170134 45.8944198103575 28.002163512368977
62 20 0 14.850913314403185 46.51160081660487 28.54768000547926
63 21 0 7.965588301166478 43.08354546738822 36.85577892828909
64 21 1 8.695649710879193 42.60007101945394 37.072100694692196
65 21 0 9.398009444224707 43.00203150721367 37.48439343189134
66 22 0 26.347164770455045 19.29323148433553 2.1779608098754237
67 22 1 25.75978309157059 18.876743023898936 2.3699254394726688
68 22 0 26.424569261546953 18.36539646268568 2.5336378282963086
69 23 0 45.67386457900466 11.948285799932325 34.400862681426716
70 23 1 46.08651170708611 11.184464157955972 34.02438500053279
71 23 0 45.48543029210668 10.460623765197884 33.921458369444586
72 24 0 37.684203999062426 32.1350137012327 17.918997426460205
73 24 1 38.5752890039077 32.402604824901495 17.97763285871496
74 24 0 39.235395064845214 32.654692691126456 17.374410586641904
75 25 0 46.10249429450116 35.38551596090495 11.593919967994717
76 25 1 45.38127901444873 35.88850293938604 11.980341156955879
77 25 0 44.58008056979386 35.49473402964258 11.604831133389997
78 26 0 25.566299478424078 5.585668311662003 36.77765697873739
79 26 1 25.78037489747981 4.9315388968888225 37.39205656022356
80 26 0 26.582899136124613 5.300637924873283 37.654919377350595
81 27 0 26.1705461384437 11.832391814795468 10.023372060434854
82 27 1 26.672084764285028 11.003932052289418 10.086001098010318
83 27 0 27.073042026962348 10.844597810859591 10.9581644647195
84 28 0 9.049399454787059 27.829880011592028 29.797785687775075
85 28 1 8.32486665832346 27.44471180685888 29.29321027854842
86 28 0 8.597405787794436 26.93762220977986 28.512366634201232
87 29 0 28.802368628866095 37.038702346672885 16.318063745109075
88 29 1 28.249220498125396 36.48189305892113 15.664362225540673
89 29 0 28.018193650416286 36.56939260106994 14.680752433073453
90 30 0 48.21481141165164 14.973224469706114 43.970812335089754
91 30 1 48.08335128036982 14.911246792492861 44.928790000298726
92 30 0 47.89165780803963 15.685431703436885 45.45420415560707
93 31 0 28.637092453207714 3.999894777346818 18.385036021936855
94 31 1 29.12141260036022 3.558958278031473 17.980894626335857
95 31 0 28.886229723294704 3.1671446154512264 17.26254555933155
96 32 0 10.316956846162341 39.720007538546625 10.111429247291463
97 32 1 9.512774490349997 40.060776368988336 9.689766403251612
98 32 0 9.668913365468626 40.84697430260737 9.113197369136191
