ITEM: TIMESTEP
607
ITEM: NUMBER OF ATOMS
99
ITEM: BOX BOUNDS pp pp pp
0 50.0
0 50.0
0 50.0
ITEM: ATOMS id mol type x y z
0 0 0 27.114546315084123 23.992943205697014 32.49030599046736
1 0 1 26.987519854322393 23.225970438013004 33.07316959684794
2 0 0 26.701731936648084 23.675014952800385 33.894679593530974
3 1 0 26.438588945153246 43.214203414538936 7.37170767711816
4 1 1 26.764589762576982 43.689128060972465 6.687750227999127
5 1 0 26.80708066717761 43.02344401804812 6.146962779277275
6 2 0 39.27087931338122 24.887467622167843 37.15665589553437
7 2 1 38.56126764938326 25.09592113448892 36.39404426488003
8 2 0 38.8550079231213 25.647101792673475 35.62839152618422
9 3 0 10.565023394422397 18.30551315422275 22.980174795744023
10 3 1 10.464042456012262 17.347089501389522 23.221768005309627
11 3 0 11.055280860032132 17.230383239727754 23.997782064920138
12 4 0 33.80904915717698 18.481297159038295 24.63366657940321
13 4 1 33.9267110156766 17.85967453077553 23.864676991547896
14 4 0 34.01692126520315 16.943302755430583 24.21644057287457
15 5 0 19.266273806224447 18.29492785225868 26.60449061270751
16 5 1 19.45882141973279 19.241985569317478 26.842882583072452
17 5 0 19.189761511342553 19.38586620175234 27.805421185497732
18 6 0 12.893204053134529 21.685544103980178 15.08238405716803
19 6 1 12.282413756444997 21.515247108880395 14.38608207941483
20 6 0 11.608275327093525 20.85649905633812 14.432168240887924
21 7 0 36.54066816468012 7.338918159196898 39.112349650578835
22 7 1 37.17220538469099 7.524048106283257 39.61299339752671
23 7 0 37.0654000057763 8.3112259673811 39.64252460050161
24 8 0 5.483418001201257 15.520875529832082 8.315217473157798
25 8 1 5.20968249927774 14.538933121447831 8.23050970086096
26 8 0 5.856912588513498 14.012053465375104 8.744296788344403
27 9 0 18.746035435202106 25.435293359557456 27.86005265476785
28 9 1 19.182980134613395 26.199258866005785 27.527103625479803
29 9 0 18.516334923132764 26.860039091693952 27.16434567354088
30 10 0 33.818967824961426 14.462988221538836 9.204226961123675
31 10 1 33.898638925014325 14.463993108525493 10.253832767574632
32 10 0 33.421396297490986 13.723431320784185 10.716047576245666
33 11 0 33.45548210154358 46.37290806225994 13.018715675601506
34 11 1 34.37645948986285 46.37484324459897 13.399498530282727
35 11 0 34.34709917955174 45.66497702332093 14.080856275656897
36 12 0 8.364961161582524 18.493778832363784 46.53792277946593
37 12 1 8.882958993672721 17.872309856401525 47.04810585677375
38 12 0 9.769194780084042 18.023127039285143 46.75955247645893
39 13 0 35.59587693784872 27.18235624612995 46.285473453702316
40 13 1 36.32813048665841 26.568995280006657 46.527878519984675
41 13 0 36.1689114947062 25.742617019312014 46.023115020295066
42 14 0 12.685159872748274 29.340650484570048 22.944781593548274
43 14 1 13.301625645985325 29.374243778493256 22.205731752654323
44 14 0 13.493586925389456 28.44491054101253 22.34373190380683
45 15 0 31.465513514929278 21.989654428700405 43.43442723245491
46 15 1 30.972556793325897 21.252269220875792 43.846030312337724
47 15 0 30.266865169797068 21.635826662718063 44.402604041115794
48 16 0 41.22097636566526 36.33224643805983 46.36626892775313
49 16 1 41.96459157809386 36.39670654784687 45.74642633409361
50 16 0 41.55925724181129 36.50759277084567 44.875810395050344
51 17 0 38.173672025533214 26.76356087491534 22.81243196169788
52 17 1 38.340597085066825 27.500593118866302 22.15356935847388
53 17 0 37.45484415085224 27.930085221757693 21.92994762577696
54 18 0 42.780005375069784 4.023280708338275 20.250080854106773
55 18 1 42.09845965467712 3.308972143224939 20.134151312317233
56 18 0 41.373327559643585 3.674958193303927 20.669779439686714
57 19 0 37.54650891082145 11.901399251511057 15.712404266594604
58 19 1 38.48004212718592 12.195940285889218 15.988877708715465
59 19 0 38.70975707681609 12.977496865283817 15.407471274746474
60 20 0 14.088049620218198 46.463708302793876 26.940971814309425
61 20 1 14.525939516386641 46.01110145642189 27.688088882821248
62 20 0 15.111219624572959 46.69458775184059 28.077224606258806
63 21 0 7.686963746865325 42.86867576990654 37.249942245404554
64 21 1 8.49372712597006 42.49217252704035 37.39581318193681
65 21 0 9.207369630932764 42.783421565126446 37.882036559509736
66 22 0 27.124707244648604 18.76894532738983 2.1427273340457242
67 22 1 25.784703157942516 18.872043844474867 2.430465621417158
68 22 0 25.21521067123658 19.04060564718067 1.49984651719458
69 23 0 45.560052977061844 11.877131137118003 34.403628542052445
70 23 1 46.1040414056375 11.184043752780523 34.01557771203699
71 23 0 45.39307806093695 10.535210748135006 33.97134789852781
72 24 0 38.12172361249926 32.03463398667416 18.005690342790935
73 24 1 38.946560936331245 32.30741451726666 18.03179214268017
74 24 0 39.5197544248302 32.276735214269266 17.379422134919537
75 25 0 46.182830775391956 35.43241298823621 11.636021341852606
76 25 1 45.385677449108286 35.88721741825119 11.973194639629808
77 25 0 44.543109925506535 35.499743685136785 11.605271897989505
78 26 0 26.01018066234865 5.734702991157844 36.96423766451896
79 26 1 25.77817271710578 4.979628031056264 37.35668900033572
80 26 0 26.11690532657888 4.355697390418828 38.03132650108597
81 27 0 26.167741701925657 11.857906919659586 10.089173551599528
82 27 1 26.635982752985836 10.981994836394755 10.0759920315235
83 27 0 27.042571143315467 10.905739989552735 10.984666083027136
84 28 0 9.102491665203928 27.805024561247603 29.763447606693795
85 28 1 8.294496159943339 27.446310368597445 29.31789459921693
86 28 0 8.650962470359177 26.94792430193285 28.523794663571326
87 29 0 28.40125700712594 37.370525506794145 15.951950065588667
88 29 1 27.869814665111143 36.61105817755262 15.582200640924796
89 29 0 27.533509116495043 36.996296251737554 14.73613483105205
90 30 0 48.20301912871128 15.051151223121606 43.98190152115007
91 30 1 48.0862988858327 14.903754397617215 44.938805504721316
92 30 0 47.89837331509628 15.743694052434735 45.35345054177556
93 31 0 28.456936813438578 3.5751569071870515 17.670974459316696
94 31 1 29.074499690476717 3.580429888148754 18.002187541434157
95 31 0 29.772147028788936 3.136092293091919 17.700770509777275
96 32 0 10.335548744346324 39.732903870034924 10.105079585020498
97 32 1 9.505775985642055 40.05926558902772 9.689499932219936
98 32 0 9.752614315537842 40.866386024872405 9.114694912718013
