ITEM: TIMESTEP
614
ITEM: NUMBER OF ATOMS
99
ITEM: BOX BOUNDS pp pp pp
0 50.0
0 50.0
0 50.0
ITEM: ATOMS id mol type x y z
0 0 0 27.138561259550944 23.936825604415127 32.426931048257586
1 0 1 26.987455704242926 23.23387392444915 33.074797621152584
2 0 0 26.690520383804593 23.60540411991372 33.946655924833294
3 1 0 26.409095546714106 43.31777585986341 7.519042718135599
4 1 1 26.76154898820301 43.68137651019963 6.688054084528038
5 1 0 26.868619174455688 43.04379823917622 5.975284114214021
6 2 0 39.33898871543685 24.92328246411122 37.135013406593046
7 2 1 38.55411253893785 25.094098507572642 36.391227465855884
8 2 0 38.92509347333346 25.646120797365604 35.666724356385444
9 3 0 10.486577921905944 18.29254971036969 22.941422991793296
10 3 1 10.420687032524993 17.332670588785795 23.204476407703588
11 3 0 10.991964422613082 17.185902016469054 23.97713903257376
12 4 0 33.80987990379287 18.4766349068099 24.627196150935795
13 4 1 33.926248714073495 17.85854836496981 23.866729002803417
14 4 0 34.01570198655767 16.958376161124683 24.20388650152046
15 5 0 19.323361398514894 18.302045086100804 26.625407102797684
16 5 1 19.497064821764525 19.230252378103827 26.857531916466126
17 5 0 19.266513458142768 19.349450073626265 27.824192366990918
18 6 0 12.736336357579988 21.466973883044517 15.20612588610378
19 6 1 12.284488720774046 21.531519975101432 14.359493622184068
20 6 0 11.733083815197615 20.819483618279722 14.698978864711126
21 7 0 36.50120043459075 7.154607682668033 39.057210544538954
22 7 1 37.16998334648667 7.526582262662429 39.61245345316116
23 7 0 37.136638221063514 8.44708683841104 39.715172027050315
24 8 0 5.505145977771066 15.530889698906531 8.32942473745125
25 8 1 5.209354910846267 14.53683988336418 8.2303647815099
26 8 0 5.832529511234494 14.028472147713584 8.725205024847403
27 9 0 18.26092537718998 25.54260669272908 27.77990556314023
28 9 1 19.182873647384763 26.201399110380123 27.559059884290292
29 9 0 19.145828342917063 27.140873535107943 26.85208737891929
30 10 0 33.766122253350034 14.39437541389331 9.185319259162284
31 10 1 33.8971730875615 14.476094293302596 10.245253720796104
32 10 0 33.40530369049659 13.732002951734989 10.634033617673573
33 11 0 33.45685401917022 46.40043067760152 12.99258340036811
34 11 1 34.374886099497395 46.373545525557944 13.401479428521803
35 11 0 34.387825686311736 45.67830939910342 14.085284867705832
36 12 0 8.322685142636425 18.534527384070067 46.50581851679987
37 12 1 8.882184343132321 17.869059603364335 47.05138742220686
38 12 0 9.823100551877278 18.034035852579684 46.740367675932326
39 13 0 35.61050422552809 27.19815488460737 46.306130350481446
40 13 1 36.34041666023381 26.582808370362706 46.53429821700178
41 13 0 36.20064039932662 25.752733983602326 46.05145166832165
42 14 0 12.665997364533192 29.49618103191573 22.907815223605226
43 14 1 13.295677993096415 29.3680638550221 22.20945639837019
44 14 0 13.587937486274004 28.47048394772015 22.22230650610998
45 15 0 31.46115599704985 21.964096243207404 43.438632772241405
46 15 1 30.956607276406366 21.239040338075185 43.839315514093165
47 15 0 30.264084881353217 21.618025055862887 44.4010939729544
48 16 0 41.37617291080118 36.31344016253218 46.5038198142726
49 16 1 41.94570512093006 36.398469177388215 45.73952368754424
50 16 0 41.71222086207929 36.50927776228424 44.85025377162855
51 17 0 38.17953403889425 26.770980634801557 22.805503713342375
52 17 1 38.34177143545612 27.491631549021907 22.16177820052735
53 17 0 37.47187125569295 27.91607838078007 21.93927173212162
54 18 0 42.851662818340046 4.0094067477709485 20.209998770131655
55 18 1 42.0968705428642 3.3134240714434218 20.138828327886852
56 18 0 41.33998030313052 3.6003326755551064 20.641988077194952
57 19 0 37.56095670067112 11.87311311071808 15.747379441278527
58 19 1 38.489426398083694 12.19343802717462 15.998057571203338
59 19 0 38.75373733819323 12.961863777293141 15.447655449252203
60 20 0 14.134434135521309 46.4379712886356 26.85791833000964
61 20 1 14.558106687955071 46.0359650019866 27.63342015767674
62 20 0 15.173544639005108 46.69097131288441 28.02991755253712
63 21 0 7.783443377353281 43.06558991870679 37.52936906332107
64 21 1 8.464724019133108 42.44355348520125 37.43322764708016
65 21 0 8.950913089338213 43.00021016543348 38.01106282484266
66 22 0 26.15377269855134 19.571443546122893 1.44859562459045
67 22 1 25.83026594117342 18.89789230961334 2.4108916888921463
68 22 0 25.451335100379946 17.83777057846577 2.4896081775347434
69 23 0 45.68718428195664 12.00334143133154 34.41484663206326
70 23 1 46.09120832551546 11.184767105979322 34.01847812960897
71 23 0 45.484252303294014 10.396849974961015 33.89831687835722
72 24 0 38.357580235877236 31.929404941749926 17.701295516011538
73 24 1 39.0201251218332 32.306395335850404 18.06473426159536
74 24 0 39.23082731232949 32.07078253411887 17.31015453648501
75 25 0 46.1679655418253 35.43879490798472 11.640249233260928
76 25 1 45.3878852418477 35.88829273060623 11.973076853150454
77 25 0 44.542808499850935 35.481902663985835 11.589971227238701
78 26 0 26.258464481455825 5.516025666000575 37.286422223854515
79 26 1 25.757827500335733 4.9842011709386025 37.34009381443725
80 26 0 26.184130191967597 4.496573177470233 37.97416096110517
81 27 0 26.15683054520489 11.853943450825671 10.06128709209874
82 27 1 26.629299854112855 10.98090731589332 10.077210432540518
83 27 0 27.053999560353873 10.880922780233442 10.981393030882808
84 28 0 9.088798011893369 27.817472796118658 29.785050703324963
85 28 1 8.292415615173255 27.44645270875134 29.321656171878843
86 28 0 8.632154484890872 26.935019228376238 28.506614159729608
87 29 0 28.304630560343494 37.4309639084591 15.887238089358613
88 29 1 27.807326235846354 36.63221650479198 15.567286010836701
89 29 0 27.456659384328287 37.07337725250878 14.76570241684207
90 30 0 48.194072890282975 15.10884824332387 43.98412315389392
91 30 1 48.08722746484108 14.897785980265201 44.94269220895479
92 30 0 47.89980887018582 15.784339904738948 45.30136714895301
93 31 0 28.60371422187343 3.3532522544909074 17.418097053991055
94 31 1 29.052687253150197 3.5956378134509053 18.01586379660894
95 31 0 29.966547227385945 3.095096694708983 17.746136243067827
96 32 0 10.309685773016405 39.741159822711076 10.093598918432283
97 32 1 9.505943747213166 40.05831908077405 9.690254135888734
98 32 0 9.774091609855969 40.874696521046104 9.112507866121222
