ITEM: TIMESTEP
631
ITEM: NUMBER OF ATOMS
99
ITEM: BOX BOUNDS pp pp pp
0 50.0
0 50.0
0 50.0
ITEM: ATOMS id mol type x y z
0 0 0 27.143234349830976 23.941770525951686 32.41521452079539
1 0 1 26.98902163304358 23.233844004443828 33.07802291128321
2 0 0 26.691522556106083 23.602928945510588 33.944819907564245
3 1 0 26.428935719170486 43.354181134170965 7.467699483219098
4 1 1 26.75904793480599 43.67685479532612 6.682478106845156
5 1 0 26.84598621301686 43.07966116906965 6.065359978115415
6 2 0 39.371905692488944 24.96242772503604 37.08610276752088
7 2 1 38.553925317517724 25.092168297458816 36.38985313751715
8 2 0 38.95621500599329 25.65245282457956 35.66466879694892
9 3 0 10.322312084509965 18.259783216541692 22.881878808430486
10 3 1 10.305963707427102 17.293332096099515 23.156453482955353
11 3 0 10.872346751346221 17.116009974536478 23.953622974976554
12 4 0 33.808199015617845 18.482345294688706 24.640418370932267
13 4 1 33.92490796145288 17.858600998684878 23.868282080332847
14 4 0 34.01869438533694 16.932145642592868 24.201405136954005
15 5 0 19.46207410055379 18.248211355485807 26.61523143182501
16 5 1 19.594493047377796 19.201477772219075 26.896744598168215
17 5 0 19.46052243364638 19.303061443188607 27.900915475119078
18 6 0 12.931302673083884 21.73993331737292 15.047000992357514
19 6 1 12.282223172576092 21.51244449986229 14.38456309220892
20 6 0 11.577566386352148 20.864194487140537 14.367044409103622
21 7 0 36.60476222263657 7.125211336706452 39.131823665211954
22 7 1 37.16613455739611 7.534811392265528 39.61268186466044
23 7 0 37.08490881136668 8.324418276290745 39.659788617272746
24 8 0 5.487528924553476 15.537203672799507 8.316305325733387
25 8 1 5.210385973225018 14.541745154360044 8.230181190801765
26 8 0 5.813265525525702 13.925452004173273 8.722651095695252
27 9 0 18.77346255719361 26.775579873709958 27.099248423262452
28 9 1 19.10975700652596 26.24204814963607 27.59862237177638
29 9 0 20.16635226167935 26.337588672631757 27.203528619447813
30 10 0 33.7419008471368 14.378801978052524 9.152726015417185
31 10 1 33.885394059207115 14.496903733830177 10.207014902609853
32 10 0 33.38470053034857 13.756834733301552 10.670264243517954
33 11 0 33.46134712377309 46.42244490810748 12.973774708809664
34 11 1 34.37468289853433 46.37572335089781 13.402745809570611
35 11 0 34.43031914599719 45.67315219711172 14.109644117589118
36 12 0 8.24199632790903 18.472030778492314 46.57875143503373
37 12 1 8.886357664375902 17.87767819060515 47.04257859282971
38 12 0 9.835042296114183 17.957739562580446 46.81151316463919
39 13 0 35.629498790204664 27.24215233127434 46.34480082636663
40 13 1 36.37379992466729 26.61954119895646 46.55326824199095
41 13 0 36.2659398494378 25.749719038378615 46.096418920275795
42 14 0 12.651257314309525 29.59368465218998 22.88644935716949
43 14 1 13.290221274418807 29.374450841280176 22.199297428183186
44 14 0 13.638494492289785 28.481913174004593 22.15206891322048
45 15 0 31.467547615931718 21.916158945163414 43.43289498145405
46 15 1 30.9164681350766 21.20387844805236 43.82216405234913
47 15 0 30.231550552542892 21.57883999853149 44.41514681653268
48 16 0 41.22821418835852 36.33459751429108 46.34244095159242
49 16 1 41.97704196107307 36.39975495536697 45.740191789769625
50 16 0 41.3742813909912 36.49627292302841 45.00492559157931
51 17 0 38.18987638208094 26.725796774658612 22.843563064884133
52 17 1 38.348082982719106 27.470114057438117 22.18102755938005
53 17 0 37.46461795031751 27.912444489488287 21.94383499617443
54 18 0 42.844916464611586 3.9897520274843807 20.201354906052224
55 18 1 42.10205237550717 3.3132560026124542 20.139925946166183
56 18 0 41.297109886752295 3.5779428223593297 20.651079637385173
57 19 0 37.57738402267712 11.88073088961655 15.75151296250136
58 19 1 38.51998544066956 12.179161446634918 16.032564863242207
59 19 0 38.78104645888067 12.96860083366684 15.457669863989699
60 20 0 14.262351005758235 46.424301463282674 26.647975956080494
61 20 1 14.640643746736245 46.09366553767139 27.49649497919736
62 20 0 15.305498665391584 46.71571449365589 27.882563761581334
63 21 0 7.559755749600091 42.77140334681104 37.514064542343135
64 21 1 8.373518292919444 42.424102689298685 37.58744668424523
65 21 0 9.051764671148762 42.68231662387504 38.11219385090608
66 22 0 25.89686418992931 17.89363378725642 3.0974700432915507
67 22 1 25.777057076223148 18.934254257710347 2.3313246213826893
68 22 0 26.544567735290258 18.967967238322963 2.068486889434869
69 23 0 45.63926593106536 11.94907914959031 34.407390937093375
70 23 1 46.09819014299582 11.184231175726033 34.01462373522065
71 23 0 45.45394216738089 10.458196657134113 33.92770146475731
72 24 0 38.29282817302463 32.00467357298166 18.260243449264784
73 24 1 39.161438002914544 32.24605799709767 18.04611782060126
74 24 0 39.885136247956844 32.14366817330881 17.427356456935424
75 25 0 46.16959750740681 35.41595743092945 11.620805009833575
76 25 1 45.38767352478947 35.89323340598665 11.974170241790103
77 25 0 44.59699016859774 35.44091095278807 11.557883702013957
78 26 0 26.516719131709245 5.461482653937622 37.49680564469339
79 26 1 25.763952313224202 4.998992530729944 37.333833919680124
80 26 0 25.802038568800995 4.302494815035877 37.86263706288963
81 27 0 26.128278799658407 11.859654931234 10.015403214566042
82 27 1 26.613008302402225 10.975574085198138 10.078564290533771
83 27 0 27.069062162396833 10.841374019563402 10.97576581049317
84 28 0 9.061159477871545 27.848702147102152 29.839646523813073
85 28 1 8.286912391979314 27.445488441373417 29.329214382341817
86 28 0 8.578706294853397 26.923774981951166 28.497281253080182
87 29 0 28.253727515045373 37.37107613789852 16.04309246996978
88 29 1 27.649254085498352 36.72136962455838 15.517921588391102
89 29 0 27.0618967031757 36.913166150620675 14.706019383063257
90 30 0 48.222775698830525 14.955024717493862 43.95320491315871
91 30 1 48.08723086276867 14.911531839298677 44.93834469819736
92 30 0 47.89000349513867 15.725578253096982 45.43364662593248
93 31 0 28.978414830815748 3.1929825241205783 17.380186106870227
94 31 1 29.037227546832312 3.5786998910756105 17.988570695607457
95 31 0 29.819039559814996 3.4759068158017405 18.24989594844316
96 32 0 10.297464058428268 39.66677641206453 10.148623950557633
97 32 1 9.50769396300284 40.06276198634611 9.687141311918985
98 32 0 9.753904598589756 40.88166546225875 9.103146477864088
