ITEM: TIMESTEP
64
ITEM: NUMBER OF ATOMS
99
ITEM: BOX BOUNDS pp pp pp
0 50.0
0 50.0
0 50.0
ITEM: ATOMS id mol type x y z
0 0 0 27.116151993003072 24.814520590134006 32.36035602579404
1 0 1 26.983638155773846 23.059767100274314 32.990744779576154
2 0 0 26.371837997789402 25.501483428914028 34.82586106248063
3 1 0 26.157006138595655 43.742144097321 8.685171694520879
4 1 1 26.95148775707989 43.87273926344593 6.421573989473241
5 1 0 24.736646331547394 39.59079519070597 9.80182608066384
6 2 0 41.68012616320435 28.681594817480676 32.005221352760095
7 2 1 38.595418508392505 24.865068937222752 36.88466611404252
8 2 0 34.96585705090784 25.321655088653895 34.06275165135702
9 3 0 15.766940011027007 19.665817725996753 23.142169990060854
10 3 1 12.809778806871407 18.261486838277424 24.331272781008895
11 3 0 14.755882947953049 16.807580847317755 25.196354448917415
12 4 0 33.550655382914755 19.55108938825796 26.37830446012049
13 4 1 33.954914328829794 17.88533177260336 23.688102197235512
14 4 0 34.11290299148536 15.747707175541535 24.763529855947144
15 5 0 18.884585287673346 18.055680605642916 24.078282118581832
16 5 1 16.971996414785487 19.381493889920385 26.221780309707473
17 5 0 17.36918346953274 22.75025205669935 24.08236929101901
18 6 0 12.142703240974518 20.12097089054925 16.41504353636716
19 6 1 12.318562984438119 21.66880631100602 14.26523892976872
20 6 0 11.785812384934252 19.81110560062477 16.353131333447752
21 7 0 34.402232047562116 7.243579413676328 37.56570081957735
22 7 1 37.4809491944792 7.346172749767804 39.77300797552019
23 7 0 34.41242178875185 11.553863128750988 38.289856881491524
24 8 0 9.363436846711254 16.233685560542746 10.948711426107808
25 8 1 4.978951617370623 14.567437176130316 8.071559206998701
26 8 0 5.969078194492043 13.111840075435545 8.925484082382255
27 9 0 41.47285816340015 30.46805757549925 25.21271819692874
28 9 1 17.110533323800162 25.324580131652972 27.22787553131054
29 9 0 22.23639351025452 18.258985363929 29.42085832614616
30 10 0 30.191511405746343 9.704953392902057 9.89142510235749
31 10 1 34.3852116266849 14.452294160081504 10.663526415883963
32 10 0 34.05899459528233 12.984432622236204 14.128222178346084
33 11 0 30.79352655040383 45.23457096299751 13.18266317580993
34 11 1 34.516666853229 46.46970195573597 13.295965544718653
35 11 0 34.13703655676171 44.493832363229686 15.198183552931576
36 12 0 9.641706878636064 21.31935697014622 43.63523751811282
37 12 1 8.600499942214517 17.683779724426863 47.27187420840785
38 12 0 13.04087398354532 18.22711561867351 46.03535548733444
39 13 0 34.90857701454988 28.14831130262369 44.984780276714794
40 13 1 35.70439928869253 25.82447585483968 46.28934852508709
41 13 0 35.2870731165438 24.99876130917897 44.19919426644619
42 14 0 11.909112853871637 27.667074703848776 23.666295843166015
43 14 1 13.449800919804463 29.332534626807156 22.358431624465712
44 14 0 12.663103520223217 27.43758674092704 23.095079723141104
45 15 0 31.571752855012875 22.951816542406746 42.48048042250693
46 15 1 31.76691705521483 21.928452800819304 44.225602672172805
47 15 0 29.761441468913105 21.83693886980464 44.402783362419754
48 16 0 38.34017233198419 36.86417927600183 43.5828782401265
49 16 1 42.28865753480141 36.308028073291 46.07218217868646
50 16 0 39.03822614729468 36.99325968987718 42.384419149229956
51 17 0 37.84971228872268 25.262205206080985 24.180821371554618
52 17 1 38.41879515651446 27.801322423305795 21.845879844364838
53 17 0 34.61767515862052 28.76870539581118 21.748057255647858
54 18 0 41.5778044942196 7.258393685971091 22.881166269808194
55 18 1 42.15984451323391 3.1475697703353824 19.948387428609706
56 18 0 41.10944915009149 3.6527739952748597 20.75446180691136
57 19 0 34.01761677373913 11.789590451364832 13.830933769741733
58 19 1 38.07721720422124 12.313886621784484 15.558841606979348
59 19 0 39.38763342780675 15.013753996458338 14.085784177231067
60 20 0 11.683355551807749 43.20038167302317 30.53850031676105
61 20 1 12.458590103647943 45.09266762905226 30.898307240706682
62 20 0 14.309828810172103 43.25749549050684 31.6268724251464
63 21 0 10.853629576541673 41.60510169441232 31.915834777546888
64 21 1 10.398201748983766 44.02679453756518 34.416587047615856
65 21 0 11.87634927224743 40.72440047282197 32.297147461838236
66 22 0 26.307172128351667 19.04729257190547 7.285428969367388
67 22 1 25.78485037364866 18.951548685283708 1.670627502296478
68 22 0 26.246073848381595 16.987461167922138 9.1799005005127
69 23 0 43.908528644510625 13.05963639322717 35.199408979318065
70 23 1 46.33519830966283 11.1523605630567 33.98086568548421
71 23 0 42.84954062033526 9.881273113466298 34.32174638592282
72 24 0 34.101605931997426 31.68920717560764 22.325412212843062
73 24 1 35.41336345213878 33.711287443783505 16.774448599803268
74 24 0 33.77669538203525 34.00999617156548 20.380075173987272
75 25 0 46.627432224765364 35.447432750045714 11.680369010713145
76 25 1 45.49272930371888 35.91768804532164 12.040847186290677
77 25 0 41.69028613406383 34.83873813587116 10.87853298730912
78 26 0 21.852149546079172 14.294737989433262 28.039197855959667
79 26 1 25.564787107200665 3.6380800047878856 38.17730316491289
80 26 0 34.07024052361114 17.435495085140413 33.84570647203023
81 27 0 24.720889316050354 13.679602507388044 10.666353398581139
82 27 1 26.99140310754735 10.943038072662981 9.890236784296517
83 27 0 26.932210039249963 11.462693887146267 13.873166436168113
84 28 0 11.107831847983448 28.670603377708783 31.091937425376397
85 28 1 8.120120080396665 27.44496459821401 29.15651265814509
86 28 0 12.071069387536244 26.004547261504534 27.212473053845837
87 29 0 29.104229041763276 32.208868644192094 19.28169594768557
88 29 1 31.835151705516058 35.487483478324506 16.248758562094817
89 29 0 31.79973904285941 32.13469349957956 16.880704582133806
90 30 0 48.16566147165147 17.56501505232945 42.185843780510616
91 30 1 48.06843798667599 14.638335741561436 45.11949023465846
92 30 0 47.93990020712801 17.367555589143702 43.787165344630885
93 31 0 31.497236066332967 4.557539313126044 20.886510310301247
94 31 1 29.34454733822077 3.4868557507996694 17.91127877458576
95 31 0 22.713255910496365 4.405823023365843 15.503117843074795
96 32 0 10.90195428890267 38.85659037599695 10.893848550523417
97 32 1 9.2173589951193 40.02069383429704 9.662838782308716
98 32 0 13.863578774405534 42.30583874876146 8.811650409799418
