ITEM: TIMESTEP
667
ITEM: NUMBER OF ATOMS
99
ITEM: BOX BOUNDS pp pp pp
0 50.0
0 50.0
0 50.0
ITEM: ATOMS id mol type x y z
0 0 0 27.150720843047804 23.88266377965068 32.41561873730037
1 0 1 26.99232694596071 23.239916131043685 33.08433024815873
2 0 0 26.699998317590985 23.569901099673604 33.92795011079945
3 1 0 26.38648139372836 43.44685904010807 7.619073546701531
4 1 1 26.75615963383614 43.684379339396465 6.6728055105719015
5 1 0 26.841204216877887 42.86729297756685 5.957184370307513
6 2 0 39.29068765922593 25.03833212530341 36.90654294404737
7 2 1 38.57731224738575 25.093724370886324 36.390760375747035
8 2 0 38.796123622181625 25.58338701220825 35.6713795721245
9 3 0 10.026783950169616 18.11334340309571 22.84063916029981
10 3 1 10.063607453927803 17.209430676124743 23.055892945991797
11 3 0 10.572492283508131 17.054954645445157 23.812150776826563
12 4 0 33.81637789016402 18.42523655294069 24.602907681449018
13 4 1 33.921945871112435 17.856279960492152 23.877518388615034
14 4 0 34.01356789701827 16.983068637155284 24.168826539314573
15 5 0 19.760656941821924 18.27445806769571 26.686802482030657
16 5 1 19.79993622923127 19.133729541934866 26.98390057822494
17 5 0 19.865839446995377 19.134886772923 27.893554914161125
18 6 0 12.780988622521342 21.50136434132631 15.217889633820795
19 6 1 12.285110123998349 21.533453877931052 14.342455319926499
20 6 0 11.689960378792495 20.79449190080095 14.673132628615134
21 7 0 36.56812949764599 6.825825212071461 39.062719546753875
22 7 1 37.187905572339496 7.534110202535921 39.633574137898826
23 7 0 36.75193800888077 8.590349850604156 39.44469858063065
24 8 0 5.555611279904896 15.38451610817344 8.380929934573624
25 8 1 5.208873047732295 14.547454761250338 8.227673319140708
26 8 0 5.724735113484668 13.946869119537016 8.657298020126621
27 9 0 19.964233722194546 25.795808219875738 27.97880791703223
28 9 1 19.213125288361628 26.441584148196124 27.552901702325556
29 9 0 18.093708876815036 26.43987207666787 27.70630349016729
30 10 0 33.663079558008064 14.293688748475931 9.290646641364233
31 10 1 33.85644497080138 14.536090011759226 10.11876794373607
32 10 0 33.4403063683835 13.952123132840251 10.643744601011129
33 11 0 33.53058387791081 46.40258700064651 13.024133166194067
34 11 1 34.37538498469473 46.38009701054803 13.406303442100247
35 11 0 34.445859994737546 45.735480287704426 14.059017430413801
36 12 0 8.322173750772674 18.48177402729228 46.55637272582514
37 12 1 8.88396792149336 17.873012324825552 47.04768886277829
38 12 0 9.788776448485594 18.02068555491663 46.7589908963257
39 13 0 35.70416001847403 27.232562738804695 46.40119174676644
40 13 1 36.44575099567813 26.6970990940638 46.59456440600084
41 13 0 36.35399791366797 25.854715677604478 46.20640919592638
42 14 0 12.633969502701152 29.74069251703834 22.84521988191239
43 14 1 13.280046649779626 29.392515582057868 22.173923966784812
44 14 0 13.705845713911623 28.503018705767325 22.046611696073874
45 15 0 31.418108862100617 21.792986280035073 43.46707205734443
46 15 1 30.83125873186612 21.129573518170442 43.78608400599368
47 15 0 30.221596858565906 21.508018563448537 44.39536513438041
48 16 0 41.54894168377409 36.298248831262356 46.60692753801389
49 16 1 41.955262166632174 36.405292087313136 45.72813207184581
50 16 0 41.436281276211645 36.50756396734834 44.94199816812004
51 17 0 38.20950162886559 26.749436028055914 22.82252704850328
52 17 1 38.35362925879197 27.41918113654905 22.227673846479373
53 17 0 37.56612781872631 27.816696528551436 22.010384219292852
54 18 0 42.792896185364356 3.9704558605818363 20.213320171562664
55 18 1 42.107669370018776 3.3130022345802885 20.144945736275808
56 18 0 41.332341696004555 3.50251824672212 20.598479960006642
57 19 0 37.74626860823319 11.887651646453204 15.848320510944507
58 19 1 38.57493950088335 12.156957520252108 16.09234426150416
59 19 0 38.8724239507739 12.86067488430968 15.611964177468419
60 20 0 14.595292130271705 46.39838416699561 26.313074327381468
61 20 1 14.8144198756464 46.215971426390205 27.20506019123839
62 20 0 15.523415122215036 46.75455421647764 27.509701717549373
63 21 0 7.349478010332681 42.82807971512015 38.20215340605608
64 21 1 8.202065441855277 42.29575803154865 37.844366593028106
65 21 0 8.670338382903362 42.73335552104545 38.69560071312581
66 22 0 24.965143413767773 19.065227705407544 3.33903168281244
67 22 1 25.889604973246488 18.87729200678659 2.354544661713116
68 22 0 25.642472584811483 18.782636274108523 1.356086703821075
69 23 0 45.75389907127993 12.011314691555908 34.39700214262285
70 23 1 46.08995595656584 11.18461574907762 34.012989494428865
71 23 0 45.544318921500334 10.38653520670873 33.87732114370881
72 24 0 38.767848873177286 31.605567617186274 18.199090918431754
73 24 1 39.51420911905835 32.20221131834615 18.095285775353858
74 24 0 39.78073972364054 31.580793449044307 17.450797536678728
75 25 0 46.17847297627386 35.497088651352094 11.686870730183358
76 25 1 45.39035191277928 35.889625154407355 11.964529250961412
77 25 0 44.66205755675752 35.45286687320216 11.568478299804461
78 26 0 26.220540586187198 4.548461670828174 37.96180403354796
79 26 1 25.820054470820743 5.053839739519129 37.33212945651222
80 26 0 25.144023654678037 4.31173543826957 37.422071621082175
81 27 0 26.159659459518085 11.774370366583504 10.019813962604463
82 27 1 26.577586737707144 10.96291214438434 10.0799813276896
83 27 0 27.006586291019687 10.86849455297999 10.884597701507452
84 28 0 8.969171688513645 27.810812791086175 29.802449931648624
85 28 1 8.2704615139936 27.444079404951225 29.34720688923789
86 28 0 8.56672284930646 26.99350518950481 28.60779291132996
87 29 0 27.805677264132363 37.55425004088141 15.79387636808225
88 29 1 27.31200352169212 36.85450077640156 15.432390493130157
89 29 0 26.63481244810619 37.13988225671982 14.863830158045078
90 30 0 48.19836666955861 15.056112744372713 44.02187085628109
91 30 1 48.090616040108586 14.903340601881963 44.94630240187177
92 30 0 47.90170307118642 15.771628899208476 45.30724045785188
93 31 0 30.07145373861428 3.0757715452542724 17.790970018115217
94 31 1 29.022618410725773 3.5325246807338013 17.925675777059503
95 31 0 28.91573888828024 4.221657415085899 18.909154790426424
96 32 0 10.19323921251449 39.67767952644762 10.119620612898188
97 32 1 9.508368929705401 40.069240420144894 9.6822115034836
98 32 0 9.837612724819278 40.77515349784391 9.201903118519299
