ITEM: TIMESTEP
672
ITEM: NUMBER OF ATOMS
99
ITEM: BOX BOUNDS pp pp pp
0 50.0
0 50.0
0 50.0
ITEM: ATOMS id mol type x y z
0 0 0 27.129312923396782 23.967251911422167 32.46310846098007
1 0 1 26.993919450463725 23.22909122863247 33.084837774221505
2 0 0 26.706360449681842 23.65933937261414 33.88505886032241
3 1 0 26.436402024410025 43.388216661841746 7.43584857972631
4 1 1 26.756186746539196 43.683021797949735 6.668603366194524
5 1 0 26.7769500202438 42.94785970287423 6.190890835592515
6 2 0 39.316862008746426 25.01721890775226 36.95813325688846
7 2 1 38.5798082714708 25.092348475830388 36.39311951832929
8 2 0 38.74974210498993 25.63122263377231 35.55858850271499
9 3 0 10.005036617302851 18.13983583060875 22.85521577349761
10 3 1 10.024450541980404 17.19255628304244 23.03658292525822
11 3 0 10.571015861820229 17.072808471222785 23.846846491199223
12 4 0 33.81177781079147 18.444972790656248 24.64465713418985
13 4 1 33.9214609035424 17.85825244752222 23.874093663961062
14 4 0 34.01928798227114 16.925283964156566 24.193430746337043
15 5 0 19.799275882328686 18.18826514628644 26.658279951068213
16 5 1 19.82981747942296 19.128814294329846 26.99428005034576
17 5 0 19.928682992522564 19.11753248086647 27.967320693807842
18 6 0 12.872761174398645 21.658492479563535 15.089221388570314
19 6 1 12.28351024232802 21.520464166487635 14.361489739207085
20 6 0 11.625158652676735 20.84941853760243 14.46794078725721
21 7 0 36.72909763530776 6.958875447510745 39.20405797817778
22 7 1 37.172576262853305 7.543689033286818 39.623796609295844
23 7 0 36.83307789846926 8.29737602147105 39.46726663718995
24 8 0 5.5694278244530215 15.408629615481813 8.388013212379148
25 8 1 5.204559663272975 14.551669901935611 8.224047804959717
26 8 0 5.773271200782058 13.849358856234659 8.702118732041715
27 9 0 19.43388150812825 25.699591862965228 27.964444716141646
28 9 1 19.22428776337232 26.467858049650335 27.56452057616004
29 9 0 18.558192268961808 26.4553573925857 27.630259214338437
30 10 0 33.66949054891678 14.309914890720709 9.20169156621445
31 10 1 33.85361814809347 14.543673519156128 10.103756350979683
32 10 0 33.40919220360467 13.923175250292283 10.7822813724802
33 11 0 33.49045244760307 46.367950107674034 13.040789247416477
34 11 1 34.380913785806904 46.38650942944449 13.40357411342366
35 11 0 34.41187219681384 45.684201509840726 14.094493394357551
36 12 0 8.35298609258655 18.448791199981166 46.58293910061615
37 12 1 8.884085418190883 17.875419505022034 47.04540250309931
38 12 0 9.755439092778108 18.014860111791023 46.77002906367138
39 13 0 35.674778943640746 27.240286807438906 46.39064966243734
40 13 1 36.46015562744371 26.710464999633594 46.60361259662083
41 13 0 36.34459080581984 25.828146525561348 46.19333875757366
42 14 0 12.692920962106404 29.439175254067912 22.914788133502558
43 14 1 13.287140975609228 29.416869778036137 22.148478211655643
44 14 0 13.516553150682435 28.48248175684604 22.302172530636824
45 15 0 31.429919935464973 21.803261851742604 43.46331652302208
46 15 1 30.818919189003292 21.115745968119697 43.779989069413276
47 15 0 30.199366595897416 21.51697182737711 44.41479458249409
48 16 0 41.45831387080165 36.304383253049 46.56124649941556
49 16 1 41.97159750227552 36.405782077344035 45.728055680370915
50 16 0 41.27068867643939 36.50313705997659 44.99017101527972
51 17 0 38.1919749647841 26.679490224296497 22.88536729105801
52 17 1 38.36067842467198 27.413703838190496 22.231843916431547
53 17 0 37.5001061468109 27.839458043847888 22.001286301745644
54 18 0 42.717647151000385 4.00365295141969 20.265888862643045
55 18 1 42.11442027607251 3.3047410151246694 20.138377524794798
56 18 0 41.31049500504075 3.5866764839852494 20.65694816594084
57 19 0 37.692270052313745 11.896998825878162 15.807602382250032
58 19 1 38.588216110529586 12.147984618366628 16.109567679239266
59 19 0 38.88104441274518 12.928195847549624 15.553715710804813
60 20 0 14.66077180160091 46.426712478245015 26.22793956905182
61 20 1 14.83723987201988 46.22977420435945 27.166520203517283
62 20 0 15.576276738132078 46.79131651053517 27.43204744332655
63 21 0 7.273793245766212 42.6230750005726 37.96847975928654
64 21 1 8.166057896570186 42.30510004571143 37.91721222094639
65 21 0 8.838131172389808 42.50652954103639 38.544891506399196
66 22 0 25.921666944923377 17.994002986802997 2.8930086499359833
67 22 1 25.851128269708976 18.953783986062827 2.354627762416588
68 22 0 25.29662731114099 18.641160094520753 1.7859559572100474
69 23 0 45.61000247042557 11.886228294199162 34.391314560251466
70 23 1 46.10619913363307 11.183495307376587 34.00760728430435
71 23 0 45.43924477804492 10.529059603215902 33.956174214997134
72 24 0 38.63036249976229 31.74667912323089 18.518599220612234
73 24 1 39.55692484582146 32.174030948584644 18.092263344348872
74 24 0 40.10860925462851 31.655271738662286 17.283316473391565
75 25 0 46.24675881691255 35.48028460161678 11.676813253831615
76 25 1 45.38802576070901 35.89136308775841 11.964767070509167
77 25 0 44.648632097642775 35.44737107410178 11.562805302092755
78 26 0 26.516837082387898 4.587089433891493 38.12975929647382
79 26 1 25.81595668757901 5.029404021804519 37.347212401934925
80 26 0 24.90485777756829 4.660163495506831 37.01236610887014
81 27 0 26.14032235383903 11.832809032236902 10.042302235269718
82 27 1 26.572558052297214 10.955331047123707 10.074864580809773
83 27 0 27.017514627095498 10.892494086207206 10.934566113386348
84 28 0 9.029480035381486 27.828859927418353 29.82194237141447
85 28 1 8.260934831444017 27.443793704101935 29.35084004690426
86 28 0 8.604437141515398 26.981339994645314 28.58373194061946
87 29 0 27.714261735940326 37.65352590366206 15.731268976952972
88 29 1 27.265111124645532 36.86410203888295 15.422419446409688
89 29 0 26.566292337931895 37.25531340560267 14.874344652360083
90 30 0 48.20767102665433 15.011776374583949 44.00761281604475
91 30 1 48.09056394501505 14.907478293788479 44.9454104698943
92 30 0 47.8994089974796 15.752158566695364 45.34614013328922
93 31 0 29.889601284192796 3.2621508748739245 17.976759334412794
94 31 1 29.035115385939985 3.5361780293715577 17.94001769568654
95 31 0 28.891094319677165 3.960407436154525 18.50338336421975
96 32 0 10.259849567541337 39.61553236911785 10.180742590073606
97 32 1 9.502939414575277 40.07141752105587 9.679450841095539
98 32 0 9.856417323959096 40.80366751814306 9.183584947996549
