ITEM: TIMESTEP
7
ITEM: NUMBER OF ATOMS
99
ITEM: BOX BOUNDS pp pp pp
0 50.0
0 50.0
0 50.0
ITEM: ATOMS id mol type x y z
0 0 0 27.39740861941953 33.046688805885346 30.562499696639545
1 0 1 27.181662952550038 21.635835509352045 32.46152578709915
2 0 0 22.923296679302585 40.05244521843208 45.089407138252746
3 1 0 20.928699009703266 40.82505272130771 22.060641266763092
4 1 1 27.995164645614818 45.64204395281698 4.295793245650765
5 1 0 9.11188151950204 9.977119961999053 34.110656001628705
6 2 0 39.06766191814404 39.57371080974531 46.98155946229448
7 2 1 39.528557786310515 23.427718801601962 38.75480221656106
8 2 0 12.626461324787229 30.26205027945684 13.463144768833779
9 3 0 40.326730786704935 28.450834372306545 21.00092410732889
10 3 1 13.827013838205522 38.09696808998446 22.88083022050771
11 3 0 25.47755774381771 8.34989621605693 29.291616063810377
12 4 0 31.28393406783157 28.3245992766876 42.27295457614377
13 4 1 34.05824663876155 17.953375308797185 22.293971586318243
14 4 0 34.72626762211123 5.885481830438556 31.17495757558535
15 5 0 30.08209878326405 12.050909237540735 10.712159163744584
16 5 1 16.061232850621646 18.473956771838683 27.957813787823554
17 5 0 20.742989266697304 43.27535783129685 9.671406876599864
18 6 0 10.868185174795073 10.997052750522046 28.723432936666555
19 6 1 12.580981697495432 22.917464653424574 12.715453951533478
20 6 0 8.861648073025872 8.956675604604106 28.841310328867756
21 7 0 13.575201362240295 8.90760518651529 23.02538845196386
22 7 1 40.1871288970055 5.456540350391512 41.383748142510065
23 7 0 11.939298492065019 40.12158705041678 27.059361825726068
24 8 0 39.57327416213606 27.044329206615718 30.84748093546075
25 8 1 2.6877788678613337 14.241340590284535 6.507356006385263
26 8 0 12.418010247461917 7.518756232107237 14.053971178477916
27 9 0 22.12025731570231 5.1226273846549795 33.053379837646126
28 9 1 27.953603729814528 13.340536676534505 26.508267030568543
29 9 0 9.313421236261972 25.745944186538 42.501392758679444
30 10 0 19.78417272093667 29.68163818355958 7.12960414281971
31 10 1 35.49743528218182 14.534530643363915 9.521248483894313
32 10 0 30.57198710989986 3.6662778423067013 35.120012236370016
33 11 0 7.39620921388917 36.65934600935886 13.311969814146385
34 11 1 36.21863544075149 47.713377136866306 12.645269271754897
35 11 0 30.302850669171498 33.170236953654296 25.479995934009008
36 12 0 17.250490740250815 45.140411398557774 20.928497473089077
37 12 1 41.92195366475452 34.9439655463565 15.316853197249317
38 12 0 40.9672219736496 22.802632958158252 38.36175570798637
39 13 0 30.45019134317114 40.40559777266104 37.15248053237503
40 13 1 36.12811199572194 25.24864561546904 47.438911899626966
41 13 0 32.965761377619636 21.954456934272773 33.63826816058013
42 14 0 3.56590293983283 18.11511357583426 30.78280201334006
43 14 1 14.24973989052049 30.521237565693685 21.66102715023084
44 14 0 8.23453459338454 17.9494757777906 27.163176344012488
45 15 0 30.10246163374048 27.37414979091553 34.94562263554537
46 15 1 32.40356817029137 21.656904829789426 44.68261614538568
47 15 0 21.044618959903822 21.75970757652223 44.62558296900394
48 16 0 41.37610866604826 35.30629359816904 13.808505783639058
49 16 1 45.43168767444949 35.80026963591231 48.87893977049613
50 16 0 15.084752572433962 41.88298004835624 16.342735164066198
51 17 0 32.604638213308576 10.549010493591851 38.09699550025377
52 17 1 39.81653865997878 28.26726665766793 20.664087327531604
53 17 0 10.684940438230056 33.58484716345921 22.25037631412897
54 18 0 37.41690772284864 34.882962914572495 42.70300843231885
55 18 1 42.63543643544913 1.202728323653115 18.46972280040455
56 18 0 37.66087043956547 7.14566965777895 24.59127296994905
57 19 0 9.98987890887904 10.265219911678097 4.117534200400629
58 19 1 39.31506429918434 11.472141754033649 16.878669535855174
59 19 0 45.04911277114018 30.54104800196105 4.623824477047108
60 20 0 8.945105611418612 34.01271784234756 29.215958082725077
61 20 1 12.030073709017435 46.32048218395175 30.746304160170368
62 20 0 23.903597670687944 32.79982329229176 35.38282189175686
63 21 0 14.382788983391496 25.224012975934123 15.65853877259834
64 21 1 9.572417762744852 46.4472263529477 36.35799526684307
65 21 0 21.533257316951975 18.39968641489643 17.464448694034587
66 22 0 9.092949830563052 21.147776890825597 14.330361178901436
67 22 1 34.01933659599269 18.73210315613442 9.365938768932288
68 22 0 7.807297456816976 6.423558722283968 29.05665875648352
69 23 0 27.883413753291098 23.69243872525999 42.556763382251816
70 23 1 48.74841734692859 10.919290660185293 33.353707634122465
71 23 0 20.263146284792175 2.9775932703192347 36.99894436588197
72 24 0 20.951020125573894 21.576906000671553 32.14433463889631
73 24 1 40.901794424175165 31.40369061386995 43.04007091441894
74 24 0 19.135593055179793 38.22168967041719 16.030109406648826
75 25 0 47.57657619353993 34.65490599709936 11.0224450509843
76 25 1 46.921825768756605 36.394840062371046 12.541653228778136
77 25 0 17.875582003275458 27.996830315860368 3.523569657675179
78 26 0 12.839912808372139 19.822272471766347 20.731704046383353
79 26 1 23.266301448753232 13.87279666042195 29.171838998825233
80 26 0 39.32531929573696 7.426148739947681 26.52399768266614
81 27 0 10.844891442608477 30.625379849464363 17.39183026025364
82 27 1 27.96018089103618 9.593874164245475 7.880678309464741
83 27 0 25.13560263066189 16.121008729300623 39.21924047391742
84 28 0 31.629704973810696 35.48832339952839 42.03076955241423
85 28 1 5.124899599230768 27.570043768995678 29.207843855485383
86 28 0 39.47276012474217 17.185547663566428 15.452306038835008
87 29 0 10.64657754062137 8.38297762515116 40.078644081806814
88 29 1 33.09489322780971 38.34619801503155 14.608781590676905
89 29 0 30.102920106027863 10.220390075288947 22.323472957775948
90 30 0 48.71674121921688 37.51269105137071 22.905026576013928
91 30 1 48.07604838548258 12.323352327642917 46.898901724651935
92 30 0 47.26704754758605 34.459612584736604 34.59739006684002
93 31 0 41.18302613321853 11.9830750210742 37.56091882367519
94 31 1 30.760833512467666 1.4259036134579086 17.746114960945427
95 31 0 12.067120779730221 39.533821581744355 22.654056839153405
96 32 0 21.423728297944237 33.69423360420012 16.703569462900155
97 32 1 7.288067328731225 40.63325747936926 9.543277037577715
98 32 0 21.92214051103015 17.058006119032807 5.804170650812559
