ITEM: TIMESTEP
724
ITEM: NUMBER OF ATOMS
99
ITEM: BOX BOUNDS pp pp pp
0 50.0
0 50.0
0 50.0
ITEM: ATOMS id mol type x y z
0 0 0 27.126242690766595 23.942857870112526 32.49141299083202
1 0 1 27.00170150688233 23.22922550122459 33.09214145602896
2 0 0 26.704336008590346 23.69220090599087 33.884021050337644
3 1 0 26.399515079315066 43.55748569864633 7.608696949493798
4 1 1 26.75488884397181 43.68685639826119 6.636089867181534
5 1 0 26.68032894996775 42.72119347000583 6.349476401780932
6 2 0 39.58879366507759 25.34285308841646 36.552814108509594
7 2 1 38.61002703937753 25.09115178186191 36.39627358700522
8 2 0 38.21285426228654 25.376819847486516 35.65452330894707
9 3 0 9.545985897313415 17.998490994535857 22.77955620251658
10 3 1 9.644470653400337 17.055697464875042 22.87841615175777
11 3 0 10.121780648243984 16.969584964015517 23.668707712708436
12 4 0 33.81538434786517 18.403456630601127 24.649030068377915
13 4 1 33.916911178866464 17.853222736632553 23.8841070636665
14 4 0 34.013989092071675 16.974399886905093 24.157219002091264
15 5 0 20.252580040516225 18.22013377560864 26.691232831305722
16 5 1 20.152615860879163 19.012818314251007 27.132432482032257
17 5 0 20.54085088991414 18.926711587752013 27.988218542978135
18 6 0 12.764672885064982 21.513572654670973 15.167541420725081
19 6 1 12.286499544859801 21.53407097508527 14.325347508155525
20 6 0 11.70300939410652 20.82461790345877 14.641820843821817
21 7 0 37.10900784737875 6.538377790822561 39.43536214736557
22 7 1 37.176198791494016 7.592189821488881 39.64058101657428
23 7 0 36.360179826491176 7.8675917384056415 39.050618589872904
24 8 0 5.729771731460125 15.32596688220819 8.50998637896063
25 8 1 5.201403265256004 14.552838272234116 8.220314198212066
26 8 0 5.589113728364434 13.846903100633885 8.571613901762863
27 9 0 19.34732871065851 27.76545301713246 27.449418489957154
28 9 1 19.19859326479705 26.58445093911522 27.63254455845281
29 9 0 20.275814704882958 26.221869824598873 28.096863439813777
30 10 0 33.420408991549536 14.011269531623869 9.2794582969828
31 10 1 33.80885423274466 14.60636996310209 9.967943149855671
32 10 0 33.63506991519046 14.40885637482029 10.80463638500244
33 11 0 33.493149135319605 46.323083863932 13.087642610009281
34 11 1 34.38952216545898 46.397506727195115 13.408999248771957
35 11 0 34.431654180114776 45.737662653952 14.05541946878279
36 12 0 8.377224261164328 18.533581402702406 46.49777128207598
37 12 1 8.88018086321416 17.867780454923963 47.05378173669867
38 12 0 9.786478082527116 18.0490163330768 46.73252087822826
39 13 0 35.75434676649691 27.261836666573387 46.47539145327165
40 13 1 36.57611275289425 26.832820367074085 46.67067431085466
41 13 0 36.48159661848484 25.957493626644805 46.352853557505284
42 14 0 12.692580355105422 29.641789994446903 22.832655780753722
43 14 1 13.270904097669336 29.445860620142856 22.105689540913776
44 14 0 13.58937723233307 28.56038093567637 22.162128968030956
45 15 0 31.371452200091927 21.610322065511223 43.49816976699627
46 15 1 30.684384346422668 20.998651075560566 43.72353583933885
47 15 0 30.15920778913835 21.395684878731284 44.402823144123204
48 16 0 41.91056345759903 36.287355065474344 46.665772460365964
49 16 1 41.94967613360073 36.41420116837159 45.71274338665071
50 16 0 41.227185739444465 36.493160760849484 45.144558469185256
51 17 0 38.21168233232731 26.650665948171525 22.910725099950945
52 17 1 38.373595434259016 27.32631949005361 22.31092761133189
53 17 0 37.56486594709336 27.73088615357663 22.08521863855066
54 18 0 42.68128224672776 4.082985915517398 20.326418870744366
55 18 1 42.120916048861446 3.2932237967338858 20.1420017918436
56 18 0 41.36503411292768 3.524737288140275 20.605198370861345
57 19 0 37.82839980247904 11.9089413602797 15.881830820728592
58 19 1 38.685246103684484 12.109435727446971 16.212971455446997
59 19 0 39.00968429121138 12.81058138973878 15.739692657956834
60 20 0 15.144257324476284 46.327546715003095 25.768524687230155
61 20 1 15.108531698064558 46.42605956412214 26.70393492281228
62 20 0 15.946105445714844 46.82272619016044 26.919358563170036
63 21 0 7.0253172491788325 42.37013248990764 38.70231547337515
64 21 1 7.881808051014145 42.14923564104129 38.35839147132646
65 21 0 8.434408659234698 42.22028532891426 39.14489076150196
66 22 0 26.285073771845866 19.426094734448476 1.8565845348762884
67 22 1 25.746579750323082 18.873296560539607 2.355487657842092
68 22 0 26.55046489535991 18.621507029559897 2.643141654784517
69 23 0 45.625848259456745 11.92763637804579 34.399707149159596
70 23 1 46.11344950013265 11.183426057492428 33.998946227443945
71 23 0 45.429064844118855 10.483285832147056 33.942169415448966
72 24 0 39.72112288581822 31.531025876559045 18.6184341465101
73 24 1 40.06627233287774 32.05208959462465 18.126060300024786
74 24 0 40.27387291070914 31.381298007336376 17.684799240313524
75 25 0 46.252402927796695 35.59747676977908 11.770024693825814
76 25 1 45.397726621006264 35.89173518456106 11.953410025835732
77 25 0 44.68824068998397 35.38981463204489 11.51209409958381
78 26 0 25.182911877935148 4.561072052198325 37.26911906133571
79 26 1 25.841428893228716 4.968121562240192 37.40975487590264
80 26 0 25.737158674501096 5.622940741704186 36.86760614286386
81 27 0 26.14417927135909 11.783463374428454 10.03429327330712
82 27 1 26.513434973578278 10.929269955373293 10.071469660285446
83 27 0 26.973799720016952 10.9261463795315 10.894414007179257
84 28 0 8.938691973164234 27.822530033590592 29.83544692025971
85 28 1 8.226538050012186 27.442644850794796 29.3836189333614
86 28 0 8.644886398352936 27.01944366855574 28.637908664581865
87 29 0 27.082314195155373 37.962047915382364 15.578721103472903
88 29 1 26.73796042162761 37.07899457120511 15.2742603503599
89 29 0 25.85238943066409 37.46099205611381 15.12778256020637
90 30 0 48.198328430422194 15.082184240100002 44.00459920769567
91 30 1 48.09506811834639 14.903026918475 44.95703215756679
92 30 0 47.90547142783656 15.779666226832164 45.27873588035681
93 31 0 29.202020538226925 4.039428078508698 18.806865411702045
94 31 1 29.127600842075992 3.5033740484549787 17.963340394249286
95 31 0 28.026207261996547 3.52538917809597 17.405631382277587
96 32 0 10.061288979231001 39.58955343217563 10.161607259065567
97 32 1 9.502852227623677 40.0762736236025 9.67557726573716
98 32 0 10.039979250195042 40.76534309254918 9.249351678893147
