ITEM: TIMESTEP
769
ITEM: NUMBER OF ATOMS
99
ITEM: BOX BOUNDS pp pp pp
0 50.0
0 50.0
0 50.0
ITEM: ATOMS id mol type x y z
0 0 0 27.125512388394057 23.947322285137478 32.50353876964127
1 0 1 27.008456287726556 23.228731578243057 33.10269006232967
2 0 0 26.716226821541667 23.708439315228052 33.844914160238744
3 1 0 26.46850851387462 43.74525800577323 7.4895607230864965
4 1 1 26.74738220364946 43.67777379125546 6.615889872557882
5 1 0 26.584858077666002 42.68523967737937 6.607595635501261
6 2 0 39.10213430392959 25.54985080479388 35.88900974960095
7 2 1 38.67993753123046 25.106106454594684 36.396323305880465
8 2 0 37.788221445664824 24.979828257672537 36.07333077331183
9 3 0 9.11995862931153 17.846829190452123 22.684719644241618
10 3 1 9.297701322261823 16.935040860271098 22.73357098503447
11 3 0 9.751464504282062 16.831304401062614 23.565015951584453
12 4 0 33.815063835991666 18.386537235428605 24.672072727147135
13 4 1 33.91207094543803 17.853111500965557 23.890301514720704
14 4 0 34.01960757285836 16.922308753953313 24.157308752671995
15 5 0 20.63568309788812 18.195223107988305 26.620317340300296
16 5 1 20.450483026997595 18.90211856577935 27.264743725679516
17 5 0 21.043319598513005 18.82497716018725 27.986460343508785
18 6 0 12.805622017687499 21.547396363464852 15.17237809861661
19 6 1 12.287792642511219 21.53590733353246 14.3081083274783
20 6 0 11.661725696393392 20.808716909439653 14.601684568759957
21 7 0 37.726633268364466 6.985470813621073 39.97713643796542
22 7 1 37.1303326668448 7.607868494786843 39.61388061525496
23 7 0 36.44316193783469 7.098487460637686 39.01574330268588
24 8 0 5.772915519329488 15.16767172121551 8.55716698886262
25 8 1 5.2014351797446 14.57062491764588 8.21707108137028
26 8 0 5.474143590891912 13.656875808115707 8.510525721467575
27 9 0 19.631260149321964 26.185124868270915 27.991626414420363
28 9 1 19.362254169656573 26.863944090562814 27.66955894756377
29 9 0 18.491158157829055 26.74127821337187 27.923760267513426
30 10 0 33.31001710660768 13.938018872254732 9.717129281338643
31 10 1 33.75886237838151 14.648790779498032 9.823620700711235
32 10 0 33.894699241664185 14.913453970775585 10.765280922446175
33 11 0 33.526370460991096 46.30648299805418 13.121351384291126
34 11 1 34.39354117449871 46.40911077731432 13.411163308145705
35 11 0 34.48804339793404 45.743186915190016 14.07808283858871
36 12 0 8.451513017565572 18.442680123430986 46.57282839536072
37 12 1 8.878754520205696 17.879427739488737 47.04325596106106
38 12 0 9.728107405432032 17.950406681268912 46.83677787613523
39 13 0 35.82370975257168 27.313610954566006 46.56007096678155
40 13 1 36.68109153585715 26.946123754869312 46.732933483727585
41 13 0 36.625164750605165 26.01992987408759 46.486526549671545
42 14 0 12.712507098926654 29.61112896729248 22.8520260888174
43 14 1 13.261464702522243 29.491231415485952 22.04629350602436
44 14 0 13.541171903655359 28.56446266396894 22.235115046497956
45 15 0 31.339657173622385 21.430770900295947 43.50628053237657
46 15 1 30.561863394812388 20.891976237151653 43.672401807584706
47 15 0 30.088256565704885 21.27728031930613 44.41496477431191
48 16 0 42.188119259548266 36.28353469790963 46.67822290367184
49 16 1 41.95401690469957 36.42265991353822 45.694869876452614
50 16 0 40.936823694747076 36.46694194228809 45.43102570071463
51 17 0 38.208529595023585 26.53285566045261 23.01522067460866
52 17 1 38.38775400463399 27.243871168535833 22.385234563495647
53 17 0 37.56678530378649 27.661803677959384 22.144996426834087
54 18 0 42.58943727608045 4.043141272553542 20.346781285460263
55 18 1 42.13593361960643 3.2886967446654642 20.14526873701714
56 18 0 41.334279264745035 3.474447435325173 20.597338374908766
57 19 0 37.93768866219394 11.922474939744944 15.938344020399324
58 19 1 38.773208159062136 12.067446655671901 16.31319358372084
59 19 0 39.168761671106274 12.80764932364569 15.835335709647815
60 20 0 15.491894749760005 46.21132260771096 25.419477660680112
61 20 1 15.362952572677475 46.60628596808621 26.27464203765598
62 20 0 16.23620757206354 46.84224067489812 26.54661272240435
63 21 0 6.556483488250217 42.108876714828064 39.11021038696758
64 21 1 7.616898428085122 42.019031447433825 38.78627857629706
65 21 0 8.427258346582962 41.81591221685181 39.4998506551887
66 22 0 25.073139413321048 19.611710727889342 2.753029680055894
67 22 1 25.809437065974702 18.85065634838212 2.3250263414073573
68 22 0 26.702845060970468 18.917771084043622 2.075110091627912
69 23 0 45.6239756400759 11.838700874926399 34.366819188797834
70 23 1 46.11977832014177 11.182708230971512 33.9906195022259
71 23 0 45.44618869362791 10.57841563273465 33.97038016584962
72 24 0 40.46493126911638 31.39262202285564 19.098723686366817
73 24 1 40.52463671086449 31.94229875476418 18.16141511656625
74 24 0 40.753215571336405 31.176965731029423 17.49068606893353
75 25 0 46.32451323535999 35.6453343207439 11.811438159515117
76 25 1 45.398321728401974 35.89530364188613 11.943627970744659
77 25 0 44.80458133257534 35.35477902166745 11.48336084526668
78 26 0 25.38487708874759 5.52197929761556 36.70918083011899
79 26 1 25.756200445648883 4.931567960685206 37.38127729298523
80 26 0 26.808630696118254 5.2047683844355666 37.878666236051686
81 27 0 26.108991193897104 11.763805450591342 9.983103008981432
82 27 1 26.459009232908056 10.905266935655211 10.071346449440162
83 27 0 26.94295809812127 10.916166301964902 10.853323657343001
84 28 0 8.846486553496947 27.86094365342387 29.920467774561867
85 28 1 8.19815571511927 27.438224264054355 29.40845759959341
86 28 0 8.624345109486233 27.06277105980738 28.71526570516469
87 29 0 26.489222583254694 38.0983676091194 15.431202100283416
88 29 1 26.24775390290519 37.286948717291835 15.140550769840225
89 29 0 25.420407039052794 37.5737224527956 15.363273777026151
90 30 0 48.195896097593995 15.054999610230146 44.06791953055093
91 30 1 48.09951290992698 14.908044735939427 44.95613679480342
92 30 0 47.90259978054427 15.752109686039674 45.34032992954419
93 31 0 28.273063593888303 4.027674904133044 18.330004120305695
94 31 1 29.131339066928707 3.5161103107493794 18.005899306176577
95 31 0 28.826054514109273 3.1590466907197965 17.302212038527852
96 32 0 9.953879023908833 39.440045345230395 10.255848200503957
97 32 1 9.503834390740638 40.0926500757772 9.663015606828385
98 32 0 10.115711640533778 40.665682677323105 9.341211960971766
