ITEM: TIMESTEP
805
ITEM: NUMBER OF ATOMS
99
ITEM: BOX BOUNDS pp pp pp
0 50.0
0 50.0
0 50.0
ITEM: ATOMS id mol type x y z
0 0 0 27.18725208686045 23.87323105538345 32.3504840401882
1 0 1 27.013263220177713 23.24054610875284 33.11077596962692
2 0 0 26.68151347943455 23.60650684621149 33.990786501643576
3 1 0 26.552904865017076 44.18977049616538 7.449998989424069
4 1 1 26.733134781909506 43.6466580532915 6.611926252684541
5 1 0 26.606200231168426 42.74606111184081 6.5530477548204145
6 2 0 38.300370494690405 25.5590867235871 35.376002454185446
7 2 1 38.72958892741486 25.130596799932118 36.37035564157483
8 2 0 37.96839763604945 24.619750267648364 36.79918742325546
9 3 0 8.712450050385204 17.789391315436806 22.503903353962357
10 3 1 9.020564619479297 16.839600237388197 22.624215147157166
11 3 0 9.472905939259588 16.61758018020737 23.472812980697718
12 4 0 33.81170280929709 18.396870444243557 24.691485873676903
13 4 1 33.9085402325392 17.847899398988876 23.897051719885752
14 4 0 34.0181877523829 16.9350060529748 24.13214213624675
15 5 0 20.894529974033027 18.27116576029387 26.60138975242293
16 5 1 20.694228898372756 18.801994075891088 27.366608703028323
17 5 0 21.440272453507678 18.783707752206652 28.01800677316007
18 6 0 12.916900495047079 21.759789001524492 14.95715536971415
19 6 1 12.286482141352812 21.519167307675122 14.324386692020287
20 6 0 11.590986624734386 20.904759030856294 14.295948607803718
21 7 0 37.85120032553319 7.750416787638426 40.18881252755883
22 7 1 37.09309597897837 7.574994598752948 39.58582073251248
23 7 0 36.886606796213755 6.799676810691132 39.320027316260216
24 8 0 5.910735180087067 15.178328940723356 8.653076603998658
25 8 1 5.19826149913919 14.566623190987011 8.21413251521735
26 8 0 5.327014896946823 13.656548445025711 8.405969281429881
27 9 0 18.386992953291657 26.82778420065462 27.779342327930753
28 9 1 19.402927311104822 26.946551652623285 27.77980360562586
29 9 0 19.993227272615503 27.556051582385983 27.157636292885915
30 10 0 33.225069731818124 13.890275594082471 10.292986435682426
31 10 1 33.720963137695165 14.688191106829526 9.712706286673518
32 10 0 34.07654936112082 15.244342934037624 10.40620899060681
33 11 0 33.45131808173807 46.36594251159569 13.035660175889422
34 11 1 34.39673960256092 46.41335821791244 13.417929706914578
35 11 0 34.64157339470144 45.76099702375607 14.132321095973882
36 12 0 8.315075631774118 18.628413798969707 46.416978519983736
37 12 1 8.872250864574477 17.875072303133702 47.04883485262486
38 12 0 9.962788617573946 17.831696419666162 46.91252778565712
39 13 0 35.87793862559483 27.431377970777323 46.64281735954872
40 13 1 36.761889458724276 27.0326263987624 46.78157786401168
41 13 0 36.810598667301136 26.07891304500499 46.616393874458886
42 14 0 12.759241474796866 29.628779819762833 22.791981433817185
43 14 1 13.251294171052944 29.52079413117447 22.0055339203915
44 14 0 13.506435904095568 28.652378873004167 22.233367864669148
45 15 0 31.30698375758512 21.250536393338283 43.485208019329036
46 15 1 30.46419110191476 20.80946986931773 43.63390052265107
47 15 0 30.00869399691945 21.150011660682704 44.410246654483274
48 16 0 42.18135559421549 36.30840943651399 46.513372744036644
49 16 1 41.94604510329242 36.430544501498105 45.67524540824586
50 16 0 41.11961135533234 36.40614060879277 45.920444662936575
51 17 0 38.21538527506506 26.46561803004656 23.074603750152736
52 17 1 38.396572174997544 27.17120097253911 22.45098138445481
53 17 0 37.571939992946156 27.613697493175387 22.18612460862496
54 18 0 42.778701885112575 4.098461910670878 20.294953769184588
55 18 1 42.139010147864916 3.288587827490859 20.154186282529444
56 18 0 41.19532082141805 3.28206350750293 20.56157552311898
57 19 0 37.94368469687736 11.877847736325704 15.987661445311018
58 19 1 38.848896968399046 12.039333851214518 16.391202823725017
59 19 0 39.31818500012058 12.76663485443636 15.962665008944013
60 20 0 15.615942045418258 46.117847137953554 25.161228786214096
61 20 1 15.58021545257033 46.746167985493884 25.918812863832343
62 20 0 16.431475149077208 46.945054358624496 26.37959039901276
63 21 0 6.750044101738027 41.84385077764922 39.49992766875912
64 21 1 7.4002258018757345 41.909560593321636 39.13717339041129
65 21 0 7.899743789286283 41.616936212840365 39.63009432910653
66 22 0 25.89984055375338 19.765778468524594 2.151568060675685
67 22 1 25.755182294436917 18.858238249543742 2.338325164565663
68 22 0 26.69840810622225 18.743248294571757 2.3296887205294987
69 23 0 45.710404370798955 12.055081956183994 34.416764243726604
70 23 1 46.11905801384856 11.182464619153622 33.985548780337666
71 23 0 45.46925522151085 10.361433456664344 33.885743804545776
72 24 0 41.13107230250858 31.610091377125574 19.10663145588307
73 24 1 40.903819582664276 31.81184986160358 18.209883847133614
74 24 0 40.940978086558694 31.416879522538594 17.34316833177802
75 25 0 46.32434738427814 35.64211567808794 11.809463161719714
76 25 1 45.40307357435156 35.90691335308547 11.941449089111002
77 25 0 44.8993369832777 35.236631112813406 11.391096228097625
78 26 0 26.198054911282 5.844528558968385 37.01422265592009
79 26 1 25.74975886043617 4.958099866796457 37.35896606271889
80 26 0 26.022595085090476 4.422126909648162 37.92681986301543
81 27 0 26.011998922355158 11.796386139995136 9.861345788390219
82 27 1 26.41264492219101 10.886984284515648 10.070594975409964
83 27 0 26.99924953480567 10.828770526906762 10.910707521644198
84 28 0 8.773739270240473 27.95272879781535 30.084217324694986
85 28 1 8.17112516966269 27.43715848810701 29.434121597367163
86 28 0 8.658881930339597 26.9960248970983 28.60642054554671
87 29 0 26.393667112923506 38.35667785977708 15.235235962905085
88 29 1 25.840865894141096 37.46156850832775 15.040852641210405
89 29 0 24.875661375843297 37.39985489894965 15.505213151063762
90 30 0 48.22597187930168 15.00238523419549 43.9269995412382
91 30 1 48.102091935924236 14.91428489049621 44.960943391194235
92 30 0 47.88655601215524 15.72634134999598 45.497308128974986
93 31 0 28.28349875778049 3.854851387555195 18.09678997774626
94 31 1 29.09886249064906 3.5329470389171944 18.032159093258624
95 31 0 29.277190169358484 2.9163190198446043 17.199633671243546
96 32 0 9.789599404407548 39.407939977394996 10.248200445444503
97 32 1 9.503051938706665 40.093165492369536 9.662367152638314
98 32 0 10.278871875476199 40.7003722319358 9.34657044811741
