ITEM: TIMESTEP
847
ITEM: NUMBER OF ATOMS
99
ITEM: BOX BOUNDS pp pp pp
0 50.0
0 50.0
0 50.0
ITEM: ATOMS id mol type x y z
0 0 0 27.165513938517346 23.908479290153814 32.41744229073783
1 0 1 27.02191933395553 23.236145979638934 33.12045762559681
2 0 0 26.698604548318034 23.661029364177445 33.924568234684344
3 1 0 26.61177590498599 44.17874404874617 7.257234510689797
4 1 1 26.727275702943345 43.64779436353488 6.590960217286011
5 1 0 26.490956217955546 42.75073164905716 6.882407694161712
6 2 0 37.857138263971436 24.902619382103605 36.22074666173279
7 2 1 38.704525611845725 25.16944276749334 36.27224567242133
8 2 0 39.02528367368006 24.70504255031899 37.276218918000374
9 3 0 8.319593509151241 17.62396281448015 22.42949534940939
10 3 1 8.68512360284488 16.72133400044905 22.484411013694437
11 3 0 9.111846586542265 16.518977453405153 23.37467374220796
12 4 0 33.81117575017157 18.384377580096018 24.703373820098285
13 4 1 33.903458961116094 17.8470430699271 23.903005493620178
14 4 0 34.023219578296434 16.885121806830412 24.151147885538826
15 5 0 21.193803431522575 18.351731400471195 26.54349850900386
16 5 1 20.99221580429131 18.679322943196375 27.492734756192192
17 5 0 21.81195858185892 18.757772386114286 28.01255077054937
18 6 0 12.890915239456344 21.674414139396553 15.070790882205667
19 6 1 12.289931009458705 21.531578235095868 14.290069053283403
20 6 0 11.588992874666836 20.842758822954636 14.409832717748932
21 7 0 37.22398773817974 8.307599745313638 39.79863436412487
22 7 1 37.08440439895536 7.53711617265383 39.58028233064029
23 7 0 37.61870001055122 6.774269606247505 39.881940991288054
24 8 0 5.889754745706109 15.03386451676075 8.652921680874602
25 8 1 5.200591207572464 14.580532568298125 8.21284074344444
26 8 0 5.235997085252577 13.51168866767737 8.357267267121015
27 9 0 20.216182651389182 27.23704413994281 27.7924396322724
28 9 1 19.411598095502377 27.189082329800694 27.76267805862977
29 9 0 19.11771755905549 26.612897094102717 28.367222487032883
30 10 0 33.50856028859997 14.448570937260401 10.508431771124874
31 10 1 33.653311372472125 14.699167242904599 9.62353464917982
32 10 0 34.28569780696671 15.621169439431059 9.7399824474835
33 11 0 33.489059435251356 46.32730515849677 13.093233499573278
34 11 1 34.40353806104641 46.42697377758299 13.419702319045445
35 11 0 34.65608797857644 45.76002330248405 14.142040857534862
36 12 0 8.500986956990637 18.547550645437216 46.46435878594132
37 12 1 8.867736101828244 17.88724113454465 47.038313619281396
38 12 0 9.841884875809445 17.714538423802466 47.04485245066552
39 13 0 35.95122700903397 27.464150341269313 46.719564291493064
40 13 1 36.86445361871568 27.142537198007556 46.84332599249005
41 13 0 36.93192567756792 26.157426715036017 46.74729552350709
42 14 0 12.763871420551194 29.65714560498608 22.814442769266968
43 14 1 13.239941008993316 29.563061583615102 21.947215375211364
44 14 0 13.497009207167814 28.65418737101004 22.267654535078655
45 15 0 31.25290330531805 21.052490566404007 43.4898695362469
46 15 1 30.34627418550273 20.707416052552986 43.58570911431761
47 15 0 29.93784515173822 21.026134021348216 44.41275411549854
48 16 0 42.56033138606974 36.32332308645273 46.40155725414621
49 16 1 41.92882125645265 36.438801222478 45.662573178039196
50 16 0 41.07747112128241 36.37330658341176 46.247729851101326
51 17 0 38.184991451481984 26.347020391327288 23.183355795233794
52 17 1 38.40729455872749 27.083783305902973 22.530262994992583
53 17 0 37.580434289505504 27.544100745567523 22.2452216203259
54 18 0 42.665936123740494 4.0624528931391835 20.328913270464156
55 18 1 42.15157299288279 3.278267083791924 20.15620421730708
56 18 0 41.23131824309851 3.3082220325660447 20.56448368590592
57 19 0 38.062065445077394 11.884778028254269 16.056499148976282
58 19 1 38.93572309609746 11.998627308905238 16.48903814281267
59 19 0 39.4576446372139 12.77034859701803 16.037735978733426
60 20 0 15.855829432063512 46.08807219297742 24.953046983489298
61 20 1 15.836277499225138 46.911727119501776 25.495071711725366
62 20 0 16.627385604295455 47.010970068916016 26.06078972281684
63 21 0 6.336565899960324 41.510487586946375 40.09972428724928
64 21 1 7.147012724587683 41.791341552695656 39.537566344707386
65 21 0 7.825260054745103 41.19627386751921 39.95056366159468
66 22 0 25.806183880037327 19.848787546813945 2.1639338659548852
67 22 1 25.777469777849717 18.893051668555145 2.3530665796658057
68 22 0 26.37790499836745 18.228705655834094 1.9145064305169737
69 23 0 45.67409278468684 11.906355434566889 34.372683859416874
70 23 1 46.12862371948367 11.182477580018586 33.976301799151166
71 23 0 45.47406520303755 10.50429927800415 33.93424982739041
72 24 0 42.09321090351115 31.371425078931946 19.086894574734924
73 24 1 41.34431457652489 31.71246411964055 18.26430729620899
74 24 0 41.223078687767284 31.35724087287876 17.205402497375932
75 25 0 46.401361154963276 35.70695591131229 11.866353369228667
76 25 1 45.40626092174877 35.90821246965738 11.927371458092109
77 25 0 44.98773556608561 35.2382682319893 11.388666215428872
78 26 0 26.629049756329206 5.58315373116086 37.488999329179215
79 26 1 25.76274835020449 5.002559326214655 37.33684607915146
80 26 0 25.28945836401215 3.92778673305 37.801288058593634
81 27 0 25.991386623542898 11.775647787065193 9.835692774608612
82 27 1 26.356581591612446 10.860391631528259 10.069183547442499
83 27 0 26.952214554953176 10.844691701197991 10.867583129308914
84 28 0 8.674701597394728 27.9794037317845 30.152284301756087
85 28 1 8.140621999048752 27.432077622734656 29.458944342785845
86 28 0 8.669085466748122 27.05905844118312 28.712509423129752
87 29 0 25.678743312568336 38.415420823012305 15.197913586711596
88 29 1 25.35395331013378 37.655558638281306 14.913155043580407
89 29 0 24.839620776206036 37.669481163406985 15.621627049972366
90 30 0 48.20386815697556 15.066088165655033 44.028437899218936
91 30 1 48.10782253192816 14.913497900522263 44.95886585424843
92 30 0 47.88552175615459 15.701830320557754 45.544436058167086
93 31 0 28.204351214576718 3.8493389392167585 18.067391126738247
94 31 1 29.100814024133328 3.510610704219994 18.022090626921344
95 31 0 29.253350257247753 3.0983379919777834 17.494490806940732
96 32 0 9.695676118331814 39.291679280678366 10.319444376440938
97 32 1 9.507214729058477 40.108098477752776 9.651529558247622
98 32 0 10.288965273765553 40.59117363885374 9.432815827209197
