ITEM: TIMESTEP
896
ITEM: NUMBER OF ATOMS
99
ITEM: BOX BOUNDS pp pp pp
0 50.0
0 50.0
0 50.0
ITEM: ATOMS id mol type x y z
0 0 0 27.145592374136932 23.910809590978147 32.490615548015484
1 0 1 27.033185511622328 23.23615125617956 33.130527967644106
2 0 0 26.709368588338105 23.688032642040998 33.88718463617017
3 1 0 26.675701818266596 44.35907672987553 7.147847282826818
4 1 1 26.715872008332646 43.632256761662184 6.5699178043441675
5 1 0 26.428312569997964 42.83724480399449 7.079720159151159
6 2 0 38.4203296677379 24.66806868828401 36.94339975421627
7 2 1 38.652240519405645 25.145465892084435 36.263603958600285
8 2 0 39.55649998861121 25.38421788435481 36.39333568630101
9 3 0 7.8652353806020185 17.42672939626202 22.369077071246334
10 3 1 8.293915101804261 16.57853755735175 22.321862863400014
11 3 0 8.63067920529316 16.458023595751634 23.21507590945448
12 4 0 33.809879488405805 18.37554347572499 24.71583666522838
13 4 1 33.897809761423716 17.840760384543568 23.91018372411021
14 4 0 34.01968864509566 16.899322113475193 24.17720006036408
15 5 0 21.497378423160857 18.526042547770057 26.643643567443803
16 5 1 21.348408721543848 18.52632856493675 27.627180620363916
17 5 0 22.189656399941974 18.749380878058364 28.046216245194568
18 6 0 12.834610671066796 21.588754552749894 15.139028110491838
19 6 1 12.294776357041135 21.542897907458006 14.255464818479163
20 6 0 11.605181091921253 20.81094674096473 14.504311050676444
21 7 0 36.666378244153975 8.241035916829023 39.37252187860479
22 7 1 37.103889440729425 7.469550150595759 39.593848681099225
23 7 0 37.823214293911484 7.830878072895359 40.192789848767404
24 8 0 5.920670636255399 14.930225169499142 8.684908823946367
25 8 1 5.192971257079215 14.577563268550385 8.205985177826925
26 8 0 5.235220442186796 13.58081699932616 8.349080915895563
27 9 0 18.568927726572973 27.803166306142014 27.833331907502973
28 9 1 19.531568727293628 27.327316861492328 27.875253178645803
29 9 0 20.138356995903628 27.793827831928752 27.652398759661285
30 10 0 33.700026835540775 14.913648950687477 10.435659121870424
31 10 1 33.61093076970067 14.764958213314634 9.538477089343953
32 10 0 34.106593027521114 15.432655601086593 8.949079033556934
33 11 0 33.52657359513333 46.25288720652701 13.183165714789267
34 11 1 34.417608156989196 46.443704018882386 13.424475846499941
35 11 0 34.59073004373908 45.782152321041 14.093379807702577
36 12 0 8.829072702790643 18.49065714871696 46.46558462985981
37 12 1 8.856947450236154 17.894959807501174 47.033177350717324
38 12 0 9.677542368025438 17.64384348469008 47.13972359677159
39 13 0 36.04915276328244 27.47059784398447 46.8164607312588
40 13 1 36.9869317822454 27.2707219622771 46.916022645822665
41 13 0 37.03476544326957 26.300567322229945 46.90617166867123
42 14 0 12.680223997644237 30.086081015088066 22.634811816052704
43 14 1 13.22044471177752 29.588649393989034 21.91524963622756
44 14 0 13.664761320398627 28.664923600576806 21.898960721019982
45 15 0 31.153439603358365 20.80310272793667 43.506742322935956
46 15 1 30.208042321417928 20.588666334792688 43.52989760989844
47 15 0 29.87437532624436 20.86762286636146 44.39666627428776
48 16 0 42.97147239729363 36.40571985149837 45.802129787030076
49 16 1 41.90188692582527 36.44392066637959 45.68555309285721
50 16 0 41.17404173676024 36.35240301123687 46.49438046342643
51 17 0 38.13460988637291 26.267549348738125 23.26215665905278
52 17 1 38.41663349819139 26.974316963636415 22.62995929271181
53 17 0 37.61348994241612 27.44570869312998 22.3257580069638
54 18 0 42.57822588721742 4.055395609396784 20.36656685691882
55 18 1 42.15941658685734 3.259954182948893 20.15950968474053
56 18 0 41.34683007995364 3.3896804093167425 20.55986403474632
57 19 0 38.1947647050409 11.868931982852327 16.157021794253605
58 19 1 39.04502201388769 11.957317834499928 16.60181304700087
59 19 0 39.52796955675456 12.69511906263737 16.146837555670125
60 20 0 16.071813106548767 46.16615988586348 24.781816685896548
61 20 1 16.145878109495918 47.09767322818855 24.991562461784085
62 20 0 16.779997888631886 47.11201365515411 25.70907914798304
63 21 0 5.938647103771333 41.254649498185316 40.74682652293629
64 21 1 6.840524386764331 41.62693448791502 40.03983499846787
65 21 0 7.796495821121452 40.97679089177472 39.87071840536924
66 22 0 25.836374933568905 19.992850541224623 2.2952590067277825
67 22 1 25.753404427836898 18.857703426089 2.317135549832441
68 22 0 26.661141919520375 18.804441665923623 2.1527092366525022
69 23 0 45.72722152277379 11.864175307875827 34.338904305326224
70 23 1 46.13004523967607 11.183171289476775 33.96838260774519
71 23 0 45.54702802958089 10.528360918889213 33.919236601361135
72 24 0 42.805746347198514 31.309663946312835 18.310630540680844
73 24 1 41.86644699192595 31.571771680022632 18.35465203155097
74 24 0 41.92848633132983 31.513917596955043 17.32666675158621
75 25 0 46.39559941139379 35.82674084742386 11.955955056340269
76 25 1 45.423505926021114 35.90776438985479 11.908464091269908
77 25 0 44.98860176618144 35.243966579798425 11.376233321976883
78 26 0 26.35215007955053 4.665529523511217 37.97139843819322
79 26 1 25.772507460215238 5.035549501713406 37.32119396130331
80 26 0 25.294455419583908 4.262889826445944 37.56361872429163
81 27 0 26.033198216249318 11.722767568643752 9.877896293554858
82 27 1 26.28568353374918 10.82567631789344 10.064366175351111
83 27 0 26.872530623436443 10.927124770076855 10.795431351963247
84 28 0 8.59993092562869 27.942350438578902 30.11117642135074
85 28 1 8.097729733977722 27.42792381640032 29.494271517305727
86 28 0 8.733825600105721 27.170755506097574 28.878995669831173
87 29 0 25.262847293660442 38.6463213619332 14.717139568525418
88 29 1 24.77442372658908 37.90272537976417 14.804193998286529
89 29 0 24.495674834185696 37.506581527732564 15.547688275710955
90 30 0 48.15389002089546 15.276206499182646 44.138338407246074
91 30 1 48.115258273996325 14.904234223735996 44.965159549709185
92 30 0 47.900390284558476 15.672476965916442 45.47506061935552
93 31 0 28.532789538939213 4.012401648452171 18.497226221540764
94 31 1 29.11816380992097 3.476924925389263 18.008199030654577
95 31 0 28.559829622502285 3.2533870060049863 17.414297455627224
96 32 0 9.672427941092959 39.3433898765158 10.274902530952927
97 32 1 9.503880603905063 40.110938760145494 9.648512316737909
98 32 0 10.343948874524628 40.51056354193838 9.505823467289966
