ITEM: TIMESTEP
930
ITEM: NUMBER OF ATOMS
99
ITEM: BOX BOUNDS pp pp pp
0 50.0
0 50.0
0 50.0
ITEM: ATOMS id mol type x y z
0 0 0 27.120838397456268 23.952343233004502 32.554342045885086
1 0 1 27.042595387690742 23.23207310479682 33.137543930471864
2 0 0 26.712494781040988 23.737464180725652 33.858428987739856
3 1 0 26.667063607903106 44.417484611966294 7.218651347551235
4 1 1 26.709956012606817 43.616717894616876 6.5436692680048685
5 1 0 26.402515281674003 43.043153754591934 7.2452284989401265
6 2 0 39.023327926221256 24.797367221843768 37.07330217351698
7 2 1 38.6441621894054 25.133753654067558 36.26523589346908
8 2 0 39.267827861180336 25.486062383652772 36.024672955117566
9 3 0 7.525955176962366 17.285024807115523 22.255449158728656
10 3 1 8.020994058226458 16.481693015875077 22.21462126561528
11 3 0 8.30813240971692 16.36714253144734 23.07996001829208
12 4 0 33.80713779011385 18.385077412077113 24.710130166436308
13 4 1 33.89400173267584 17.83346199666187 23.91711621064145
14 4 0 34.01363342042255 16.936162958836917 24.182204772073277
15 5 0 21.647464455046915 18.619087004055856 26.808006409306575
16 5 1 21.603914807461987 18.420177702188308 27.70937263141883
17 5 0 22.401299598237316 18.738158139087815 28.155028505271464
18 6 0 12.701454230069395 21.491326234964173 15.097415584908008
19 6 1 12.297969279178515 21.548034705966806 14.235552281473216
20 6 0 11.716935604132345 20.872708863347103 14.58364628563411
21 7 0 36.254962169876315 7.794357676107439 38.99865047854658
22 7 1 37.14238648724358 7.470321760740871 39.629509938069496
23 7 0 37.589115866526235 8.199261079877356 40.06980968590304
24 8 0 5.930145046241691 15.023398177098835 8.679846299075232
25 8 1 5.1889045319286415 14.560830346920929 8.20369490853115
26 8 0 5.22417548651965 13.695811964239018 8.328064117273604
27 9 0 20.520612550896985 27.725612618170395 27.74038344601719
28 9 1 19.496527020530053 27.56871198126027 27.8644982050526
29 9 0 19.655873980607865 26.788670807136796 28.711982008584602
30 10 0 33.82054131638069 15.224019361558799 10.303463757402234
31 10 1 33.58623751026983 14.815551658352092 9.45363181966892
32 10 0 33.93358612177585 15.255661572337347 8.874430172630378
33 11 0 33.54035641009808 46.26630180739341 13.18155789650631
34 11 1 34.425185277274004 46.450021999771835 13.431823911060476
35 11 0 34.59848265438076 45.82165878185968 14.06291890798213
36 12 0 8.927062864500689 18.555792931297752 46.38725792975921
37 12 1 8.858122375928527 17.902442800652302 47.0261602698812
38 12 0 9.554311213961155 17.456001311129558 47.340399865924155
39 13 0 36.13373401555775 27.525827076066324 46.89002523653286
40 13 1 37.06897851570481 27.35596093748606 46.9666983003637
41 13 0 37.14788074855509 26.41963246835465 47.021332640466554
42 14 0 12.723196423826005 30.101006584165326 22.562440409333682
43 14 1 13.209885817154989 29.620608240137187 21.872989335082593
44 14 0 13.626474781835812 28.74285655813191 21.88947480296836
45 15 0 31.065985485464605 20.610907136742927 43.486990210381016
46 15 1 30.113994280237666 20.50748989831285 43.49421494441951
47 15 0 29.80176547399241 20.7403063646769 44.368008844371424
48 16 0 42.849104469801965 36.46121399058611 45.46272629030501
49 16 1 41.88809512910934 36.44801512464161 45.70053774499931
50 16 0 41.573912224121045 36.337813139040406 46.604320491900545
51 17 0 38.12150366962494 26.230162604429264 23.29944739455044
52 17 1 38.41838150089591 26.89421139389407 22.703505302987363
53 17 0 37.665427114660645 27.38537461649059 22.371669442185944
54 18 0 42.59026458241766 4.053820202633908 20.36310425384961
55 18 1 42.16355372673756 3.2469325239938893 20.16290697085284
56 18 0 41.38039312324373 3.4382653666393237 20.572038961543218
57 19 0 38.27388421817641 11.820484105648047 16.256853999956295
58 19 1 39.124663017271494 11.932966362199931 16.67784212466343
59 19 0 39.54729930371368 12.609221820332477 16.239525678916095
60 20 0 16.152346070780048 46.3042549155792 24.611980255406298
61 20 1 16.369135618505883 47.21609054717875 24.643536237442508
62 20 0 16.84356324409163 47.28276137214772 25.457192667205526
63 21 0 6.265849904636041 40.856400737231965 40.991647921869486
64 21 1 6.617542976381882 41.518206473496306 40.391285751942675
65 21 0 7.314592965000733 40.94627271109704 40.01080716245815
66 22 0 26.667364454380824 18.942364117451085 2.769246690872701
67 22 1 25.757507007368503 18.97308893900561 2.285082073431325
68 22 0 25.711875680328497 18.120794036987988 2.0422618570886075
69 23 0 45.590729858471484 11.822156584671852 34.36618250328931
70 23 1 46.151922313669274 11.183065579260942 33.95579223222234
71 23 0 45.441242971650084 10.566936737464875 33.96649992619242
72 24 0 43.0878102035573 31.345588222764803 18.156049384739134
73 24 1 42.260892942402315 31.463458010392596 18.382016086933426
74 24 0 42.17975772346566 31.73389734523264 17.574989710635897
75 25 0 46.345613661583435 35.841447147825065 11.960935190872496
76 25 1 45.43621173574708 35.91371452207254 11.898508918138452
77 25 0 45.03476946818202 35.227740332407265 11.356230091789518
78 26 0 26.343023068777306 4.683803461410231 37.95389368750934
79 26 1 25.77872052337563 5.016872118333197 37.34002987024321
80 26 0 25.120169172816432 4.503616873391002 37.275634546921815
81 27 0 26.00524663517826 11.654774089542336 9.835784514602052
82 27 1 26.236885816014066 10.80957851359571 10.064771079048949
83 27 0 26.83882916393624 10.872844944132131 10.756688322246536
84 28 0 8.4598535621669 27.931314249316127 30.13858409314967
85 28 1 8.078289398916748 27.429535883480376 29.522657067346366
86 28 0 8.687524560007136 27.160562081746964 28.891428617371417
87 29 0 25.00412703308064 38.86193321314801 14.774467685453635
88 29 1 24.35048692479126 38.051184810069955 14.691421403586123
89 29 0 24.530089515787772 37.71981200931779 15.695449728589226
90 30 0 48.15538455169182 15.306900902832608 44.10599563065483
91 30 1 48.11830577101508 14.909972754505997 44.969463531214046
92 30 0 47.910802035023394 15.573521235101122 45.54079581460156
93 31 0 29.350690249041033 3.878896312174658 18.726454202107092
94 31 1 29.097303690762544 3.4462642629153493 17.972693489692745
95 31 0 28.012628104871286 3.717959778256327 17.845093111924527
96 32 0 9.6372475825739 39.4279064779874 10.202626050769078
97 32 1 9.504704981978128 40.1026201016218 9.654977756343913
98 32 0 10.349891853119969 40.57116270215797 9.460070021995966
