ITEM: TIMESTEP
956
ITEM: NUMBER OF ATOMS
99
ITEM: BOX BOUNDS pp pp pp
0 50.0
0 50.0
0 50.0
ITEM: ATOMS id mol type x y z
0 0 0 27.194157849426137 23.882092515309868 32.385581345913316
1 0 1 27.046007477949296 23.247418645463416 33.146283246030755
2 0 0 26.689486509383805 23.585480986258457 34.00667285364928
3 1 0 26.76890054180549 44.49469911810809 6.916529253322792
4 1 1 26.698053713002523 43.62136353041277 6.559370953230617
5 1 0 26.390297565673567 42.90540849334911 7.1487388321710466
6 2 0 39.16443616338526 24.81763687348055 37.12162671240653
7 2 1 38.653619172392816 25.120660977376886 36.282473337446085
8 2 0 39.120989438406774 25.70966829415909 35.53422144940346
9 3 0 7.236653931702098 17.183772237800735 22.060592328341123
10 3 1 7.806973469102458 16.412056958588437 22.135718541957466
11 3 0 8.137303928336891 16.203495214858975 23.023263935181262
12 4 0 33.80610890719607 18.386456431829114 24.675275126960535
13 4 1 33.89064186629075 17.829895133105033 23.92446036440882
14 4 0 34.01278776351556 16.93518900190021 24.18626781756929
15 5 0 21.766791260540636 18.684574314798613 26.906940811991525
16 5 1 21.80306210482338 18.339470313040792 27.774203015270857
17 5 0 22.52709217050083 18.704488448752247 28.240525816748043
18 6 0 12.87473989231126 21.723475529852212 14.923276977846992
19 6 1 12.295117904425538 21.531763158904276 14.253139185756966
20 6 0 11.614177494168397 20.93788125800664 14.255487322314224
21 7 0 36.39872867755034 7.481359763333664 39.06518459503986
22 7 1 37.14676596780602 7.475131932485359 39.63845555210309
23 7 0 37.352073558180265 8.383058798450516 39.91851915844226
24 8 0 5.864188769160778 15.040012437801563 8.629930779928722
25 8 1 5.186058966270369 14.560528681075132 8.200654397815356
26 8 0 5.282816306219687 13.636786825948146 8.376660737384935
27 9 0 19.975680792295805 26.887881308867865 28.28028936351519
28 9 1 19.627903009849344 27.70195195085575 27.939592367589775
29 9 0 18.80346428958252 27.647306075574598 27.587933937407282
30 10 0 33.7948925595424 15.298376271207228 10.20868314277979
31 10 1 33.56647229621722 14.853936903709405 9.397823826220217
32 10 0 33.93947637808201 15.302613208123203 8.649098413604843
33 11 0 33.521145995809775 46.35262225663187 13.10079868570395
34 11 1 34.426249769522066 46.452506717159885 13.43741809877346
35 11 0 34.71355875287883 45.816346410190604 14.122009395813938
36 12 0 9.350023134888959 18.56492730732128 46.30915150288908
37 12 1 8.8227674910397 17.906807831933158 47.028078476075834
38 12 0 9.691921025416402 17.37465852513977 47.39578996957487
39 13 0 36.20329994435066 27.638694529655144 46.93935247209726
40 13 1 37.127748557488566 27.418825442343262 47.006354289546714
41 13 0 37.304563112177334 26.48853194872714 47.11368302573783
42 14 0 12.835572448914432 29.845004385934963 22.653041934271027
43 14 1 13.203688355010085 29.660102092599132 21.812572217725492
44 14 0 13.483558392356906 28.83923020234463 22.170849966878603
45 15 0 30.993018235507453 20.45615760462896 43.44113268180292
46 15 1 30.043489795356393 20.44510705408626 43.46913922217283
47 15 0 29.71438611703562 20.64054379806819 44.33923529929893
48 16 0 42.682909000302196 36.47376529776548 45.446926626497365
49 16 1 41.870407009278715 36.45205338969179 45.7079119251439
50 16 0 42.068863052628956 36.346461651613566 46.50996497621937
51 17 0 38.099623821840176 26.183041849565377 23.345247567843753
52 17 1 38.419048740885216 26.833089736451683 22.759888717444788
53 17 0 37.71566910186663 27.332009666764655 22.411988218152995
54 18 0 42.81494733219907 4.0086999254717925 20.253012000379137
55 18 1 42.165352712795645 3.249419132970135 20.172127970440304
56 18 0 41.21586789700712 3.3140721056268454 20.58501703366357
57 19 0 38.33332084915047 11.739974001857941 16.378211297135667
58 19 1 39.18220774138101 11.913036185999335 16.735101695548423
59 19 0 39.63165662876804 12.60518458445632 16.290476364768484
60 20 0 16.155255100353177 46.410823071138736 24.3399352304875
61 20 1 16.54293992396712 47.29844642500146 24.3857636751278
62 20 0 16.928603982666807 47.56018676992741 25.22948153993379
63 21 0 6.316285428103384 40.89730246650536 41.18510047365
64 21 1 6.4590337058596 41.38477261931323 40.66684112676986
65 21 0 6.926473067568891 41.36645632566682 40.04699656049549
66 22 0 25.27718368252409 18.03067527625226 2.051400603196263
67 22 1 25.835993077138266 18.93205292770606 2.258230178030154
68 22 0 25.804145143368057 19.77795436596371 3.071188964007052
69 23 0 45.73694984779294 12.07406347822677 34.406876936070326
70 23 1 46.14157498055268 11.183888073633183 33.95514080069195
71 23 0 45.54586661489204 10.297779403784377 33.83587586710911
72 24 0 43.58574017400097 31.05786451973054 18.351014853291186
73 24 1 42.572867143327 31.396546297056585 18.38155368306472
74 24 0 41.98459403333084 31.963025577078 17.790663844615384
75 25 0 46.38873627342459 35.791206585290624 11.930893798479948
76 25 1 45.438389271920904 35.92258117789202 11.891918235650698
77 25 0 45.11610445229705 35.21501355745241 11.347268901358085
78 26 0 26.448925913731085 4.646040695088181 38.05259535759755
79 26 1 25.78746381332372 5.016101818262622 37.34734527318309
80 26 0 24.807789172015106 4.522028121714028 37.05664240425858
81 27 0 25.938460982807754 11.681335871556941 9.758562258422666
82 27 1 26.198503418766737 10.793946147161629 10.064554106764522
83 27 0 26.8568527274024 10.796461373448775 10.78023738828783
84 28 0 8.461704215717022 27.996522405602374 30.230171372685938
85 28 1 8.051993681161871 27.42643248468341 29.542424704403732
86 28 0 8.716527030648148 27.147861569391562 28.871092073100847
87 29 0 24.687069369980257 38.938804831097784 14.519281546266491
88 29 1 24.041421260816744 38.178152709116716 14.644234048174313
89 29 0 24.381396917903633 37.77368840448363 15.47407490394064
90 30 0 48.16721452415807 15.30448083787695 44.04411067072348
91 30 1 48.12164286153719 14.9125901225877 44.968525751701065
92 30 0 47.89356732549745 15.552704075292512 45.69862121248874
93 31 0 30.04377148589598 3.374355472562688 18.348518711815263
94 31 1 29.029592047363487 3.451342031812481 17.96281990916171
95 31 0 28.353204651610106 4.015242093975306 18.45360656833254
96 32 0 9.700146079917827 39.394145751023686 10.241148624419658
97 32 1 9.50386898231641 40.10500401320045 9.652865718598688
98 32 0 10.287406475813388 40.57631573516346 9.443647403524954
