ITEM: TIMESTEP
988
ITEM: NUMBER OF ATOMS
99
ITEM: BOX BOUNDS pp pp pp
0 50.0
0 50.0
0 50.0
ITEM: ATOMS id mol type x y z
0 0 0 27.185454143759127 23.90944245975843 32.4114414777719
1 0 1 27.055086375312392 23.247627027382407 33.15416722105816
2 0 0 26.69002488037919 23.58842762503913 34.010146571144354
3 1 0 26.76791651103303 44.44741842979781 6.88720035816538
4 1 1 26.691698186644178 43.618401851907095 6.543028652327133
5 1 0 26.366574160330597 43.019251003027236 7.249647667243222
6 2 0 39.24291749614829 24.881289518070272 37.05586232052031
7 2 1 38.66417409928989 25.117340980343123 36.28046743536662
8 2 0 39.05769669582888 25.74259687268839 35.42298108176507
9 3 0 6.918304958976459 17.039846056749468 21.930660216477378
10 3 1 7.543197723239547 16.318911206179212 22.031622015525514
11 3 0 7.84648981811742 16.120423058249123 22.940547002825237
12 4 0 33.803594443053555 18.393322104195683 24.663121312158694
13 4 1 33.88638987665233 17.825226584174786 23.930497731268744
14 4 0 34.01203507573917 16.92968148552601 24.211412577683653
15 5 0 21.903954542021257 18.74433098826393 27.06152997906193
16 5 1 22.05049276104757 18.24095098449306 27.850264872992383
17 5 0 22.68960160952414 18.643016254794553 28.381282971244623
18 6 0 12.849487287042518 21.6836670699554 14.956509229127366
19 6 1 12.29846466744921 21.538177535867373 14.230942615481581
20 6 0 11.619221736166843 20.922182872668518 14.298310872766613
21 7 0 36.49475467967525 7.250054116132047 39.10747905748017
22 7 1 37.15011712595179 7.480293952929673 39.64787841806675
23 7 0 37.17314050611639 8.465274896091863 39.79973208380332
24 8 0 5.783130962309118 15.118464271632511 8.561808108330164
25 8 1 5.180882081819245 14.552506826535488 8.1965316257665
26 8 0 5.379371348768029 13.626483596758522 8.446778173488191
27 9 0 18.855477857627868 27.946256293462195 28.050463321181994
28 9 1 19.669693977225307 27.757535903189222 28.00141235968713
29 9 0 20.13417256691947 28.381910438698316 27.60001260620702
30 10 0 33.70306078926706 15.302499059016109 10.117302551573857
31 10 1 33.544549409978416 14.903561702603453 9.313621087053201
32 10 0 33.97590382969998 15.426926102761378 8.574652900530385
33 11 0 33.53788477461411 46.38192954599476 13.088002578406268
34 11 1 34.43440884827456 46.460883442367404 13.44305488130709
35 11 0 34.70968487141597 45.80519987596537 14.13109001625727
36 12 0 9.586432869678072 18.434826908626118 46.3955704678012
37 12 1 8.818758195069998 17.92254937956546 47.013986832758775
38 12 0 9.513151494836922 17.2498687617325 47.544980375068775
39 13 0 36.27922178809645 27.69881429233926 47.00336704049984
40 13 1 37.20685566640392 27.50148550902662 47.05619684123737
41 13 0 37.41263220289485 26.58113272645024 47.22183492230462
42 14 0 12.843406488634809 29.91369138192465 22.620226384906747
43 14 1 13.192505606294585 29.690934543237322 21.769900661674626
44 14 0 13.490298042418905 28.870530913854893 22.136829565849826
45 15 0 30.899287497599968 20.27408092238879 43.412922306896135
46 15 1 29.954183144608972 20.366220629038008 43.435580631887966
47 15 0 29.63269559872825 20.524743517747698 44.31606194901418
48 16 0 42.499472088522225 36.52086833130618 45.1735944008483
49 16 1 41.86466801660759 36.45507408694956 45.73301309686398
50 16 0 42.40330377064891 36.36225967013228 46.391221118185186
51 17 0 38.05745566187673 26.11754864514198 23.4098315602077
52 17 1 38.42145932016247 26.75614952647543 22.830809441636674
53 17 0 37.75459098383153 27.276147132073724 22.455997396422497
54 18 0 42.86791323579195 3.9592005772265266 20.211993232796644
55 18 1 42.16812370740943 3.237601529067385 20.176826301536963
56 18 0 41.23224589845601 3.385541269912173 20.615629564315164
57 19 0 38.41330152887091 11.669325827098442 16.502323405525505
58 19 1 39.25807414391879 11.887073434239285 16.810189913280738
59 19 0 39.66572154890611 12.591647806794676 16.317671985233133
60 20 0 16.234313477582525 46.58547923303459 24.090863859969538
61 20 1 16.7559896063813 47.405145449191096 24.062213665492667
62 20 0 17.00537213003791 47.79357845936452 24.909841447439554
63 21 0 6.603224893331179 40.636156405660074 41.289498104950866
64 21 1 6.250675394387581 41.25362511296932 41.002294156605686
65 21 0 6.40210019990712 41.64622283236528 40.339452220284116
66 22 0 24.788991952340563 18.956084936115463 1.7896870682336996
67 22 1 25.80892129193084 18.959271669903355 2.3151878104874686
68 22 0 26.671280001801826 18.530384903159927 2.2703175506417774
69 23 0 45.70794105154241 12.043573584809568 34.40357439001691
70 23 1 46.14981412226516 11.184975978972549 33.94733735569508
71 23 0 45.55152933668717 10.305626196593389 33.836503091135164
72 24 0 43.890685392389045 30.88837406919559 18.124716466994396
73 24 1 42.942975586761655 31.30980417697623 18.41127106556727
74 24 0 42.347814196214735 32.126496205161715 18.03780219788325
75 25 0 46.40960348495888 35.783204783946616 11.928787309409584
76 25 1 45.44857175513349 35.92915821412337 11.880284520651097
77 25 0 45.13617756423388 35.224147265533496 11.34368229198861
78 26 0 26.467471566632746 4.615129995879229 38.08893182016035
79 26 1 25.7833476996273 5.0083724404330825 37.351458049490965
80 26 0 24.770303524517306 4.63613144203588 36.95039534437057
81 27 0 25.917251836721 11.669945160414539 9.73261467198789
82 27 1 26.14910802579705 10.773701453360905 10.06309376471754
83 27 0 26.83033985434086 10.751327259759764 10.75893054170012
84 28 0 8.440622922688089 28.018029616185096 30.262224491699122
85 28 1 8.025491082069877 27.425808122372622 29.569843781828457
86 28 0 8.670545681540942 27.139057671722753 28.88891077037243
87 29 0 24.335534445636636 38.89341835437129 14.27913249302562
88 29 1 23.651096941351312 38.33604536356864 14.5844381502239
89 29 0 24.253231898723808 37.97648375336259 15.144354069276316
90 30 0 48.1643254044989 15.326004142550568 44.065972827851404
91 30 1 48.1257838389679 14.914384430641876 44.97023533162313
92 30 0 47.89120717225239 15.526178716260679 45.75235235746555
93 31 0 29.669162425975017 2.8119921753393036 17.367019696689884
94 31 1 28.987530379988808 3.4836431399687093 18.009415209341142
95 31 0 29.337810056567676 3.9007906993060626 18.781735509761837
96 32 0 9.803792721914842 39.39909014480568 10.257819832500077
97 32 1 9.501833772724083 40.10251754484275 9.654245772180959
98 32 0 10.199470557196808 40.62331353238633 9.389820123760297
