ITEM: TIMESTEP
104
ITEM: NUMBER OF ATOMS
66
ITEM: BOX BOUNDS pp pp pp
0 50.0
0 50.0
0 50.0
ITEM: ATOMS id mol type x y z
0 0 0 27.121398083876034 23.851997033393648 32.44048570915958
1 0 1 26.959364351476975 23.22922748542915 33.05587709554894
2 0 0 26.753526386210105 23.75343409680468 33.7037207334768
3 1 0 26.458068887440508 43.88760053866521 7.612878768188757
4 1 1 26.57554542393582 43.40531312891089 6.881660725935185
5 1 0 26.296753409202584 42.70078272141293 7.184220102340011
6 2 0 38.20271350154798 25.22895796258642 38.29837614228848
7 2 1 38.02747615526499 24.66833755835829 37.80627087248372
8 2 0 37.52061833881304 24.760561753893462 37.31052368191918
9 3 0 17.23877522653353 34.922621201023766 24.64319811060969
10 3 1 16.22662435748645 34.762819278828815 24.142267184818948
11 3 0 15.606540936822533 33.88754769053328 23.85124187903208
12 4 0 33.83886451998269 18.35536619852705 24.47323346791464
13 4 1 33.94336463524383 17.875842676167768 23.84922631418927
14 4 0 34.01278937604333 17.0976412349771 24.0900295578417
15 5 0 17.512433000226157 19.017898880190582 25.610549501512473
16 5 1 17.075832412142734 19.48364272873204 26.02397998034172
17 5 0 17.078064110310706 20.148462796850037 25.71174162279884
18 6 0 13.096002719838534 21.789659182040413 15.266400445117053
19 6 1 12.283967329232162 21.50417961919244 14.46952059952551
20 6 0 11.38557593578536 20.77610199883311 14.232634218891382
21 7 0 36.606175980452484 7.150805565359647 39.11816148289204
22 7 1 37.18788606206797 7.553884913819038 39.59904110214797
23 7 0 36.89802523823897 8.32252935736726 39.52066910147258
24 8 0 5.792472398504671 14.894349703999627 8.603462177774507
25 8 1 5.2417577873404575 14.607464891197749 8.250720217143238
26 8 0 5.334953083799166 13.809348222262845 8.404787162054088
27 9 0 26.50004714742005 12.803020616771557 27.946707494883647
28 9 1 26.62823698378384 13.591595496993557 27.725556066409023
29 9 0 26.137111278048092 14.040809063424303 28.13144942549764
30 10 0 33.891024495903956 15.318990620552173 10.56536617525684
31 10 1 34.38058430082537 14.760956659927405 10.783584669551441
32 10 0 34.3128738803181 14.421089614053288 11.457459159271009
33 11 0 33.56572242784192 46.19298150927124 13.226930984766605
34 11 1 34.322447972246145 46.32817719013739 13.36983388540565
35 11 0 34.475227758833476 45.80107546180608 13.972145338028895
36 12 0 25.027504327602085 48.17117163242727 37.10781634480078
37 12 1 25.344421107076457 47.687695554939104 37.79191187607183
38 12 0 25.222474244833 46.92294253382706 37.461029394998
39 13 0 35.44159118860001 26.654832538628977 45.899551047952784
40 13 1 35.65661086780557 25.894583512548962 46.15446111950622
41 13 0 35.558657911060195 25.411789259070776 45.467938740295125
42 14 0 12.55117750976603 29.156163087372207 23.069173780332807
43 14 1 13.351753586754622 29.189862591192863 22.44251848336021
44 14 0 13.573220507080174 28.203807410237705 22.337332881291836
45 15 0 31.730054729849723 22.399831190666383 43.4195796592659
46 15 1 31.686799266271983 21.959065408614936 44.168923059828856
47 15 0 30.842008121161754 21.857933727878336 44.354768752312246
48 16 0 44.06191808842107 37.105928930977385 44.61780664935701
49 16 1 43.60537876256808 36.748513488505104 45.30268858779827
50 16 0 42.7882199181451 36.70382424123098 44.97397631914497
51 17 0 23.913801894927925 39.260614876158165 42.97453967344097
52 17 1 23.616059346951346 39.9106558231655 42.95316619040066
53 17 0 23.16506189243866 39.94321779644308 42.37329874520457
54 18 0 40.11785182139392 4.216535231312452 18.542637636775474
55 18 1 40.52994799415124 3.7844745999891094 18.61334210532187
56 18 0 40.682208915639 3.6596574589254134 19.358453884005804
57 19 0 37.34816338398207 12.320096603460144 15.295461662705826
58 19 1 38.02264118894178 12.438056844462386 15.518418352422335
59 19 0 38.39093674085355 13.019975845964023 15.23460984020503
60 20 0 11.988973360129336 44.30449037539644 30.67435641012603
61 20 1 12.521126208565347 44.95186567219229 30.898370136534904
62 20 0 13.195086177478903 44.5204743518622 31.18269257756776
63 21 0 9.511375704781042 44.14369920038432 33.26951461045622
64 21 1 10.491557912906556 43.707486903286004 34.1807022158893
65 21 0 11.532295657283333 43.1827025471406 35.02547848352219
