ITEM: TIMESTEP
110
ITEM: NUMBER OF ATOMS
333
ITEM: BOX BOUNDS pp pp pp
0 50.0
0 50.0
0 50.0
ITEM: ATOMS id mol type x y z
0 0 0 27.1062403946034 24.042844672833787 32.46602668432333
1 0 1 26.959814182562884 23.200193529230802 33.050281699104815
2 0 0 26.706373440862404 24.023702028798038 33.82987422856386
3 1 0 26.347011154177455 43.73407477264065 7.828369282149398
4 1 1 26.598428209376923 43.44007571432723 6.831353016015554
5 1 0 26.07149113904095 42.34909521757031 7.5917264421476585
6 2 0 39.10987467507881 25.21455547632378 37.55971024209553
7 2 1 38.23850660685413 24.506703461168684 37.54665908349717
8 2 0 37.252900428090655 24.723056198190303 36.68131476609573
9 3 0 14.560152375739984 33.40969551102114 22.53643801102857
10 3 1 14.413398855876684 34.52164896353907 23.054103933106106
11 3 0 14.88127785837026 33.69028263351875 23.797337562600525
12 4 0 33.79214983887712 18.55001175220518 24.78203229071378
13 4 1 33.945333424553546 17.877697505862653 23.822259135146982
14 4 0 34.03144623520473 16.848316770948085 24.219546733913123
15 5 0 16.587335903416285 5.802281758278256 38.119403645473795
16 5 1 16.12388781988696 5.191874642148314 39.43782561021424
17 5 0 16.193867208307765 6.636455632367096 38.377231029953954
18 6 0 44.147573584547665 39.7446850077471 8.012123882010203
19 6 1 44.75047851624889 39.5851979189409 9.1994522190224
20 6 0 43.078819706261775 39.45993772568438 10.176626018759896
21 7 0 36.28939434109443 7.275326233635653 38.913419141918105
22 7 1 37.230651575121094 7.524577323752785 39.624692445516125
23 7 0 36.52934485115326 8.666005666569294 39.31575158507627
24 8 0 3.7205743942991227 15.872808969518218 10.920637693314966
25 8 1 3.712758680256951 15.167586798575332 9.520815517895006
26 8 0 4.4273949154301535 14.3186373281714 9.473814773844941
27 9 0 10.85187722173217 18.152504582258754 14.414979903331052
28 9 1 9.97690518246058 18.824650955171904 13.620651850232168
29 9 0 10.108232899560441 18.914394885413337 14.953219325862317
30 10 0 30.915198484963057 16.0027665095889 11.13930177317767
31 10 1 33.50357055477083 16.413156942240665 10.271687726245728
32 10 0 34.15591843939606 17.767700027661967 9.939811617220897
33 11 0 33.157863608748045 46.035924450754855 13.2369916858461
34 11 1 34.35338884980138 46.35202074787361 13.35666882941145
35 11 0 34.38667707071031 45.57540649188911 14.172514234166622
36 12 0 40.452395986740505 37.8207317407485 11.133207054141302
37 12 1 41.718380553775134 37.94906748374616 11.128077659167639
38 12 0 41.873018533905686 37.297332955433696 12.215438452469474
39 13 0 35.35479118015227 26.88385992829787 45.74243756854248
40 13 1 35.66295065822812 25.88141817053828 46.176982651658044
41 13 0 35.50588172054533 25.3529215161411 45.240527454748246
42 14 0 12.601806259993937 28.738137445072198 23.05928751605303
43 14 1 13.371597992096753 29.217848545884422 22.429180474674705
44 14 0 13.246469863581916 28.18102301606656 22.59450177725483
45 15 0 31.439463312158463 24.168488358175864 41.14572848820619
46 15 1 31.572352708648594 23.033558371636925 42.76109253058539
47 15 0 30.704956014499512 22.584021864033268 43.38309558175199
48 16 0 43.756881471763116 36.00593212395433 44.0244789825398
49 16 1 43.56872469619554 36.103767035057224 45.23478644895234
50 16 0 42.51493346042331 36.32892805064441 44.43242857308212
51 17 0 44.14582868943639 22.474974998094822 25.510659914431844
52 17 1 44.55274910237624 23.27015327568559 24.74752623584354
53 17 0 43.330854279351875 23.751484957051158 24.558226414327304
54 18 0 35.37671146807659 7.614798077128698 26.133853831418893
55 18 1 34.687377285927674 6.62001068665148 25.834175071757564
56 18 0 35.493215718469465 6.143835817291857 25.118884822697655
57 19 0 36.835326259401796 12.237613408208073 15.118585361827188
58 19 1 38.04157527078643 12.421778381219637 15.539604130413442
59 19 0 38.58038908682521 13.38255646664153 15.039011921652582
60 20 0 12.657352728223653 43.7170346654246 30.96216441687984
61 20 1 13.497640116843579 44.33728622287598 31.32935560245166
62 20 0 14.884191077101628 43.394652915710594 31.900417247270873
63 21 0 10.396150885928401 43.1589259199632 33.24609821674546
64 21 1 10.449832177404272 43.81972724190735 34.2118512210774
65 21 0 11.006191674062325 42.814185716335956 33.73245483244841
66 22 0 6.68928808564912 26.188293889292233 43.170885647474314
67 22 1 4.719988888502099 26.78102462178108 46.19334643623684
68 22 0 6.7136736180645995 25.867007482274495 43.43434607338648
69 23 0 45.38150387820455 11.979228549122231 34.48746159684591
70 23 1 46.10746021167403 11.173424679337769 34.040145409212194
71 23 0 45.0249621842495 10.624195247840632 34.09182211101496
72 24 0 37.61640540698133 30.63588785362974 41.07633670946941
73 24 1 38.47499200917982 31.344150225849724 41.335416369707985
74 24 0 37.86214652287347 31.6705045864783 40.29491936212147
75 25 0 46.24901304153639 35.476397308101745 11.68655193628372
76 25 1 45.360091570227866 35.8733713011229 11.994674792344025
77 25 0 44.19567856680644 35.5138934931899 11.612788064155062
78 26 0 22.7759339486693 14.219602373915077 27.844591179330266
79 26 1 23.595168222651353 13.748327784685348 28.482605237433436
80 26 0 24.664003193093897 13.326579607006954 28.306202452060422
81 27 0 25.36901673502916 11.610788679367987 10.326182991787297
82 27 1 25.86879453196726 10.517977652541258 10.22534845682921
83 27 0 24.908067951535465 10.019485300752379 11.215122884780387
84 28 0 9.240470956348922 28.07385076073661 29.846248793937928
85 28 1 8.404932083429074 27.497965139952345 29.146071448615338
86 28 0 9.447968564040325 27.017270818134488 28.516224018605406
87 29 0 30.889803016293747 34.43912744854687 17.09331746507538
88 29 1 31.65546607922941 35.18542886167327 16.26167806653897
89 29 0 31.838520370339154 34.03728648860489 16.32036006842835
90 30 0 48.13258557295791 15.59429615470779 43.95390993138327
91 30 1 48.06871397613007 14.85029044803893 44.95043504277732
92 30 0 47.96854164514494 15.94762679325732 44.725349646908676
93 31 0 28.485837525469062 4.019697818349638 16.876273490574935
94 31 1 29.34492485226848 4.114408947985232 17.62911490126243
95 31 0 29.1967733246196 5.45173774244351 18.030971366381074
96 32 0 9.666857371134503 38.91661766502224 10.374783446352053
97 32 1 8.811361095964509 39.00151011847817 9.713471037360671
98 32 0 9.306791318857202 37.94343470261847 9.410038410216535
99 33 0 43.51442816559553 38.177861197726244 20.976792709863915
100 33 1 43.30956388538404 37.46099598819539 20.053563857423985
101 33 0 42.54325700996686 36.525106160075765 20.877756791851905
102 34 0 1.4444725754501369 33.88455397367146 11.141133515307889
103 34 1 1.0843330072484811 34.74909463188687 10.332238678448318
104 34 0 0.9490827454261608 33.746625716187786 10.982859056620986
105 35 0 37.200895228111825 30.47002585105238 20.56382736117214
106 35 1 38.217072694839246 30.564752195522388 20.086079805622862
107 35 0 37.38434121814743 29.669089291432464 19.76320368118621
108 36 0 36.2753106170372 45.32168559840804 45.453916489202804
109 36 1 36.89513663951227 46.40329617754942 45.83837141678566
110 36 0 36.29631936317806 46.10067126851743 44.54908023512681
111 37 0 14.484979944124502 19.17631803378685 30.003148598056093
112 37 1 14.074947798810244 19.471142020845836 28.994517843628575
113 37 0 14.097765568749056 19.284235670752896 27.863378512554508
114 38 0 6.776269607684921 25.171688807461038 18.237571636836172
115 38 1 6.288862316615383 26.10478187414421 17.505729497527835
116 38 0 6.80882522875165 27.223944736609592 17.60717715561645
117 39 0 23.335766822719364 32.16871127032251 16.410172726840877
118 39 1 24.36818260681533 32.61437771050047 16.34557464714875
119 39 0 23.957131799684934 32.249509085316106 17.45683546209716
120 40 0 21.80932879443789 43.15081486804358 24.446994368525438
121 40 1 22.868283581181174 42.851768423395775 24.35706877736813
122 40 0 23.392406279124465 42.00476446863683 25.11547799295939
123 41 0 31.8659745311732 27.082051141705143 14.538397915454377
124 41 1 31.077597758750336 26.112592130642994 14.726083119593762
125 41 0 30.838828065047863 27.048403934579827 15.650921269660941
126 42 0 23.50974331285661 46.09964110994773 30.819012947098702
127 42 1 23.737951233325738 47.03929451099656 30.242037764683875
128 42 0 24.744367132207827 47.132861951661305 30.711816777768487
129 43 0 4.6077931486849595 21.324659518827204 15.173293949820161
130 43 1 5.3583866309815225 20.533725022967374 15.134777833132507
131 43 0 6.34296652909381 20.03896996220682 16.022374194637216
132 44 0 9.764819604124575 21.177466687694547 42.53194893992803
133 44 1 9.495395019809628 21.398520012475956 43.8215582653065
134 44 0 9.251373877814263 22.54744391519433 44.04998828262366
135 45 0 29.449353245518278 4.461110882831288 2.3907009148567493
136 45 1 29.973262006199246 4.049061531347761 1.5690736960497826
137 45 0 29.883069329847725 5.245004394483348 1.484079839359656
138 46 0 4.484428465513115 8.6953369657687 28.41766030544913
139 46 1 4.718646166904778 8.846571633359515 29.594127317959238
140 46 0 6.396694468471092 9.819011816287615 30.1021818692316
141 47 0 42.96107544140807 7.547180946685375 38.740703250809624
142 47 1 44.22755114457821 6.385924834296246 38.60872738009047
143 47 0 43.2466814229754 6.0855100341519694 38.242776923061435
144 48 0 4.4605907386998 18.407181640317187 4.877760500462907
145 48 1 4.285078458732796 17.69594892541338 3.953374699437904
146 48 0 5.4666187929616195 17.689026669870238 4.3433216683701295
147 49 0 16.023081710361136 21.349563652354494 38.146920750956106
148 49 1 15.428572544654385 20.739143148337664 39.17417018482059
149 49 0 16.367582999926977 21.479166712298017 39.6122125928879
150 50 0 8.51968349149702 46.74920329083664 12.829375004960307
151 50 1 8.12136039565858 45.92633364486101 13.284076831259018
152 50 0 9.204037148326606 45.28668051871763 13.988856879898242
153 51 0 20.329797918985765 34.64700054222095 12.558454130241287
154 51 1 19.35729368361511 35.38273714547072 12.30348846587871
155 51 0 18.490269333094176 34.71655753277932 12.479817743863387
156 52 0 46.622486583996064 30.023523442911365 41.237703769914525
157 52 1 46.84411457643478 30.92495216719437 41.956135157315295
158 52 0 46.909308867399616 31.801754670567632 41.39287260063194
159 53 0 7.923943126584315 17.058219869498824 9.863460772371118
160 53 1 6.90400244752043 16.12030649653046 9.630239353958283
161 53 0 7.253633910690057 15.429682192444249 10.4952935129687
162 54 0 17.02280000641117 30.930773472612266 31.64845571053971
163 54 1 17.103261954057064 30.75390436367955 30.297429409133468
164 54 0 20.171565533155615 28.321402818534644 30.02241212415624
165 55 0 2.708838219494163 38.506400380067916 22.45315111162012
166 55 1 1.9975625396074623 39.6124685820632 22.950399393756978
167 55 0 2.9623957915498864 38.64807188690205 23.17128808590223
168 56 0 6.258046975955756 15.315142929373248 23.87795619508842
169 56 1 5.8740987578908 14.233599462108545 23.343884446854585
170 56 0 5.637688435330291 14.031007957019378 24.331976168410733
171 57 0 42.273932738835825 26.66120335596943 36.90999826913223
172 57 1 44.548866937857134 27.204787025466686 37.20125880525543
173 57 0 42.44289221784002 26.581804576155704 36.4751660647626
174 58 0 22.008810099172806 6.143656362415528 35.3890087304119
175 58 1 22.78006727881596 3.5782177512147113 35.29193894943443
176 58 0 21.98981980951186 5.937849602066555 35.434211049152985
177 59 0 11.896435477601731 7.53942583827546 26.082663399034267
178 59 1 12.047329533510698 8.067011944252814 27.94504447223743
179 59 0 12.758324610664586 8.899001978774178 28.84180102890828
180 60 0 26.73372917548698 44.77029643304435 4.902455963301446
181 60 1 27.258066503852977 43.62593381845101 4.560176979636676
182 60 0 23.95058027296916 36.16752352764485 7.907075918923833
183 61 0 21.41711792233537 27.3513859659147 31.319582604382877
184 61 1 21.339728139958098 26.691292316086667 32.34099990914989
185 61 0 20.44536850964441 25.972924669086066 32.10745005107009
186 62 0 10.127810549287641 48.19878384318329 41.6305205870131
187 62 1 9.062505663141124 48.12083411319515 41.96441852438077
188 62 0 9.605473880825704 47.42730714111869 41.23755436619945
189 63 0 44.762199527956874 7.224680112513748 12.309740365932996
190 63 1 44.556808642893714 6.450414647574469 11.23800382895054
191 63 0 43.772282302074096 7.494772439617705 11.114401782276143
192 64 0 42.74243091451519 10.366214893299935 30.627632323227463
193 64 1 42.96892210391691 9.529389497093263 31.555643175565784
194 64 0 41.97472574727629 9.073203696340796 31.921261799442664
195 65 0 7.009142931941509 39.67014619328972 33.257065196657706
196 65 1 7.535335433481812 40.39670297398842 34.09049869608403
197 65 0 9.337185458425022 39.0024289832254 33.34422257859794
198 66 0 24.105348271923365 21.529403980266014 44.642523148954815
199 66 1 23.233780262764494 20.69987893956995 45.83242447020436
200 66 0 22.223842613561064 20.212339924731598 45.534022890921364
201 67 0 5.870933372316464 6.700387186406046 44.44966226416954
202 67 1 5.550884926999436 5.794053379302869 45.91963785723166
203 67 0 6.301359314288334 6.425240101494178 44.34490347143292
204 68 0 21.08711986520849 29.273420498398835 27.916068839975686
205 68 1 20.636596474186142 30.460992933181945 27.80308647627858
206 68 0 19.88326095030896 31.104595055850332 28.44927895780669
207 69 0 45.84961408249154 41.74786527564169 37.289738859555285
208 69 1 45.41243067106044 42.56989434903307 36.70413473218174
209 69 0 42.35942603597822 42.635668369996246 36.39571033977279
210 70 0 22.92927300969331 35.375668426384884 45.5974701606008
211 70 1 23.90791999273885 35.76577143827399 46.10667545141036
212 70 0 23.521987566988933 34.70171585238252 45.62509348537094
213 71 0 46.45386316376708 22.737708533395683 21.929663193916177
214 71 1 46.498933979003795 22.014633305366647 20.973026591662315
215 71 0 45.2601109809984 22.264881037640148 21.168437718511537
216 72 0 31.15629476462211 11.19254919525255 11.02027960389677
217 72 1 30.544497347594557 11.213097139565473 10.120674905147244
218 72 0 31.17773438826316 10.493261648778573 10.628401084422933
219 73 0 19.54428508935595 40.21151860833063 10.1704357803079
220 73 1 19.942021902103836 40.56621274087934 8.976767237746293
221 73 0 19.74467168878014 39.500339125151235 9.13099430009789
222 74 0 32.146209541001745 19.511209129663566 5.494130217122593
223 74 1 36.55691167292223 13.230269290220946 3.3855785188770047
224 74 0 32.02369292923302 19.257926342927995 5.5060381115233605
225 75 0 8.498974524054892 20.8653125263664 21.63427455115237
226 75 1 7.551743144355186 20.113190386295276 21.51246275744795
227 75 0 7.777934006333435 19.16656846998926 22.174570621807952
228 76 0 10.057236841789598 15.452842964896782 18.499562345909922
229 76 1 8.951290243099416 13.371519601895846 18.888118224129073
230 76 0 10.757827229074325 14.899530445931333 18.33914819353712
231 77 0 11.936599671230297 4.366226440038136 24.512816723388887
232 77 1 11.869239455861468 3.262771002704066 24.697751876957867
233 77 0 12.960199631109656 3.5961585527924163 24.241368871302313
234 78 0 5.7139665170265035 11.981026089668173 5.271557223372191
235 78 1 5.962046661765369 12.84020028531827 4.660013221044584
236 78 0 5.817716009254784 14.056263972616996 4.810647031451479
237 79 0 10.351501376337843 12.979671999544768 22.479212224934134
238 79 1 9.772612682627322 11.937642009772238 22.638417736662706
239 79 0 10.467505779929562 11.935661125476827 23.52520927812838
240 80 0 43.72014160221681 23.218028849004654 40.08377167837101
241 80 1 43.8569701103966 22.713574103132636 41.29215600055142
242 80 0 43.523389620189235 23.79416970200794 41.51036397990638
243 81 0 25.777866660272284 12.26779264264758 33.94853291545737
244 81 1 25.785300399045354 10.385821265128575 35.118197885111954
245 81 0 26.122419304315365 9.88786055481841 34.38303555494213
246 82 0 43.23804410931894 2.5512375096571427 9.9545731746198
247 82 1 44.25354339828001 3.063701713654077 10.415624831280072
248 82 0 43.205013080308525 5.237901742915303 10.8354477979268
249 83 0 20.89974442508243 20.135742477393478 7.851834969753063
250 83 1 21.004111838079698 18.97838742307885 4.242692944443223
251 83 0 19.37289830805289 18.456638025772772 5.248260400495832
252 84 0 16.534966554509356 38.12556174159436 23.043311450004154
253 84 1 16.58485870016454 39.28555175295933 23.61281505037919
254 84 0 16.72509816912955 38.594376428385075 24.546721540328367
255 85 0 46.01837863761889 39.14734018685137 30.960403011745885
256 85 1 45.55065486813876 38.27062884509428 31.535184327732452
257 85 0 44.676649825371754 37.4656042787986 30.90787465964602
258 86 0 25.74469194091127 35.96823546187676 40.49653975405002
259 86 1 24.911976811401512 36.65939537402703 41.148523523036324
260 86 0 23.922069138606975 36.06150546992492 41.30974792407287
261 87 0 17.162890564706178 5.046541096357324 19.55770343173704
262 87 1 16.062609897942714 5.1633318979975025 20.034778766130895
263 87 0 15.47457276014073 6.170369050412008 19.76268812893868
264 88 0 43.4714872103027 18.71854520519719 14.282372297620839
265 88 1 43.888431346539335 19.161105048810416 13.328780812230777
266 88 0 42.814459755613576 19.40656771082894 12.769935616364815
267 89 0 39.81186961206893 33.905685909779834 44.739822464200024
268 89 1 39.40992387700009 34.76102320975102 45.62668946635988
269 89 0 38.38163613390245 35.34118425346926 45.44762372782045
270 90 0 40.70370550227597 10.150668161722951 19.475841940571218
271 90 1 39.49490680110942 8.625505169768328 12.667364974796557
272 90 0 38.500643693143196 8.485119091128073 12.954828853958078
273 91 0 17.135905065314926 8.150428424833823 9.90235440369315
274 91 1 16.89110815417666 7.706018452008272 11.046909162125216
275 91 0 16.757942687497163 9.63858444849984 12.726354035985755
276 92 0 11.047395746436846 31.807198066395443 32.070772191677314
277 92 1 9.741707129698302 32.88763880249771 32.610933976104
278 92 0 9.012134363225872 32.63095392705372 33.90811290185157
279 93 0 19.887966680604148 9.759295150326647 10.239789618902684
280 93 1 20.156538490884827 9.450912676219142 9.280752938886012
281 93 0 16.524926314934994 11.296334996555164 9.763060377069811
282 94 0 25.497798448289792 41.944650079006514 35.563247677453084
283 94 1 24.969575441171425 42.7002574148497 36.36028843845054
284 94 0 23.885592882242836 42.4499996224529 36.84322339204061
285 95 0 11.435279884440968 16.688702313048495 43.361724570951104
286 95 1 10.675720358950809 17.258952227536817 44.01408989811113
287 95 0 11.6995744153987 17.36261371271419 43.26255229685635
288 96 0 16.025888930785275 42.552770196856606 22.927025238091048
289 96 1 15.396231971200464 41.978595912786965 23.709538197444427
290 96 0 14.91984381929548 40.674184127015394 23.08417474015687
291 97 0 30.729765447878915 3.408268562845631 6.963583149921763
292 97 1 31.418634968225586 2.99369157091447 5.950448124168029
293 97 0 31.57717345696099 4.1650973889569185 6.574764227538047
294 98 0 18.334371097573822 38.847527592720816 36.44792537274777
295 98 1 17.28444517431042 38.81021077885941 36.17837475909197
296 98 0 16.70047042435686 39.11203053622246 35.26426398943508
297 99 0 30.365847373328933 23.872668467757794 38.696603914699956
298 99 1 31.324149906761964 23.902986144375454 39.040122168235605
299 99 0 31.71493558777488 24.19146433297588 37.907675466593545
300 100 0 6.223678866509759 40.38350265896351 41.3086062655774
301 100 1 5.182294530901582 40.898635477007446 41.991008859878725
302 100 0 4.913991589209031 40.192982643319475 41.01397676205801
303 101 0 39.456119843752205 11.4595233984926 4.076404669870299
304 101 1 40.470529324676846 10.559531265091273 4.109136798257346
305 101 0 40.96778958870995 10.806292498870897 5.367189576888745
306 102 0 27.26991825997268 24.065532661727605 43.33449966190545
307 102 1 26.60507266306034 24.71974690279516 43.94945875582156
308 102 0 26.644237364782487 25.80683637410288 43.61510111902837
309 103 0 29.95332133277335 33.233786637422185 15.643665458456727
310 103 1 29.269262729346 35.92586576771704 15.636981048115716
311 103 0 29.971449199402194 33.053431233724794 16.095549057031302
312 104 0 37.47666676290754 10.996005490651783 10.518698802049798
313 104 1 38.34671330343343 12.667695433918826 9.483180293753982
314 104 0 37.27961053592582 11.708322222157424 10.703287200785933
315 105 0 34.819374671096384 38.767907413695326 11.654098053331337
316 105 1 35.944927586958585 38.73906008343188 11.392939210862798
317 105 0 36.50502211987209 37.62668474234176 11.483535060226902
318 106 0 23.845962390150266 39.59178229618576 40.92639044421247
319 106 1 24.363307450225687 40.62020420759679 41.26454721700287
320 106 0 24.014425010792205 40.53088218818531 40.07962257503742
321 107 0 26.334308480725092 34.26581207268882 6.481708051781114
322 107 1 27.112098348555577 34.11758312362599 5.629734497125241
323 107 0 27.603716170398414 35.270671595715584 6.012349699735472
324 108 0 23.834629830539047 11.564289246520977 15.300736044245072
325 108 1 23.817366893050195 10.187079898419388 14.82232673015671
326 108 0 22.914965308674187 11.478746196494892 15.126026165120436
327 109 0 44.7041323969895 25.762023531517375 41.118405898308616
328 109 1 44.70475189346544 24.896257338913845 41.784104925136205
329 109 0 43.83237082779844 24.58055889467502 41.06902066219586
330 110 0 21.855078541439912 34.913527915491045 4.015081639845982
331 110 1 22.73977107435092 35.70663281374631 3.7021723542070686
332 110 0 23.059769219172942 36.614486737901444 4.253620968387005
