ITEM: TIMESTEP
112
ITEM: NUMBER OF ATOMS
33
ITEM: BOX BOUNDS pp pp pp
0 50.0
0 50.0
0 50.0
ITEM: ATOMS id mol type x y z
0 0 0 27.154354269768245 23.74085877223385 32.33958114098822
1 0 1 26.959400275792806 23.24224897237266 33.054561992904624
2 0 0 26.719907774636074 23.65921276218077 33.82792733600824
3 1 0 26.577750807517948 44.14136441052483 7.445338897480934
4 1 1 26.567076956789613 43.40636442911843 6.908442176996058
5 1 0 26.313853903589926 42.43175187844087 6.923757344336024
6 2 0 38.23750452500615 25.201221419160554 38.32216506145556
7 2 1 38.02838504757803 24.664679769172984 37.806930603017804
8 2 0 37.458976779468905 24.844721694927884 37.2907663806539
9 3 0 16.72126683867178 36.222891413912436 22.92840579637969
10 3 1 15.928988222519534 35.94134458519012 23.137965109240042
11 3 0 15.713983471912899 35.135141286814736 23.399251835253864
12 4 0 33.83470037862142 18.377195994346906 24.49537364428318
13 4 1 33.94371286171473 17.87531848439097 23.8491851736762
14 4 0 34.016239450430504 17.08530962565148 24.065821683033725
15 5 0 17.50936928186857 18.96873520231668 25.637933950235038
16 5 1 17.076786675643657 19.48392851949016 26.022480695131836
17 5 0 17.064518235407753 20.195823249826905 25.709395000242598
18 6 0 12.616834779234335 21.36178133571109 15.201261518687367
19 6 1 12.28826023309334 21.5249643822229 14.443704690905294
20 6 0 11.797775287536304 20.873138215242985 14.71148428372666
21 7 0 36.75326054621983 6.7999184302036895 39.16444448304199
22 7 1 37.16322554096875 7.560950476825035 39.58268544938527
23 7 0 37.14598631673665 8.559037852508904 39.73641833355942
24 8 0 5.85432747191281 14.981091444314442 8.636947776162652
25 8 1 5.244022208365489 14.601340409156172 8.25292139186077
26 8 0 5.235747763831409 13.819827986638451 8.334260454887325
27 9 0 26.53850762249619 12.795182737027707 27.91142954911223
28 9 1 26.62727425699778 13.589699763631863 27.726610318720798
29 9 0 26.111021293210452 14.076596133844372 28.151486459138006
30 10 0 33.872975254177355 15.330053332167239 10.57400007583162
31 10 1 34.38585168646041 14.758641392539811 10.781953206355642
32 10 0 34.26882823782417 14.432969718172952 11.504005073280819
