ITEM: TIMESTEP
113
ITEM: NUMBER OF ATOMS
33
ITEM: BOX BOUNDS pp pp pp
0 50.0
0 50.0
0 50.0
ITEM: ATOMS id mol type x y z
0 0 0 27.146607266194547 23.78313200339841 32.361662045999054
1 0 1 26.959769642178568 23.236491243562348 33.053886589975235
2 0 0 26.721668664229345 23.709290101748568 33.816820411667166
3 1 0 26.53953441083782 44.07120005904166 7.507239287398703
4 1 1 26.571252591187243 43.40983002475019 6.8984246810702485
5 1 0 26.285262870733956 42.44647060344773 7.022132203420823
6 2 0 38.2417308305081 25.234633849870168 38.34477475102864
7 2 1 38.03075460142795 24.6604165998892 37.80717468893421
8 2 0 37.41695575447514 24.87956151413974 37.264319797347206
9 3 0 16.762063862286702 36.1575890527832 22.939966992471746
10 3 1 15.922048952545628 35.947736717955834 23.137320192611327
11 3 0 15.784208464875265 35.09820364102571 23.398013564595974
12 4 0 33.830654702261114 18.389062506931918 24.529008597014553
13 4 1 33.94390166923293 17.876098489096755 23.846104868341225
14 4 0 34.01775580991203 17.06118804476361 24.08121407894965
15 5 0 17.534837861249578 18.958542560450958 25.605933624698416
16 5 1 17.07429364258864 19.482500780710442 26.026724412437726
17 5 0 17.07874427893864 20.228894857744162 25.67351009222178
18 6 0 12.705396661830624 21.49944055774343 15.121725297822792
19 6 1 12.28583288048246 21.512806018314482 14.458986096861743
20 6 0 11.748094427655758 20.930103806877188 14.546503888689095
21 7 0 36.68953847147877 6.882092825626554 39.13277587982259
22 7 1 37.17276418827841 7.556410801409624 39.58871774708148
23 7 0 37.05710412387436 8.549469375468169 39.671591657677126
24 8 0 5.905315231959183 14.967230923070938 8.674112114757008
25 8 1 5.23923536664571 14.603315751241968 8.249355420922006
26 8 0 5.261257262626116 13.801994586322785 8.354069503367368
27 9 0 26.52776932822392 12.775486429412668 27.92406353696986
28 9 1 26.629763556944813 13.590369871373806 27.724164693174465
29 9 0 26.081618926923575 14.085046713145319 28.178137278871553
30 10 0 33.84518358126837 15.359952312809028 10.56452779065233
31 10 1 34.38829286824343 14.757746516737397 10.779858632841872
32 10 0 34.257571596430324 14.417372475452899 11.546918225420846
