ITEM: TIMESTEP
116
ITEM: NUMBER OF ATOMS
33
ITEM: BOX BOUNDS pp pp pp
0 50.0
0 50.0
0 50.0
ITEM: ATOMS id mol type x y z
0 0 0 27.15525659212866 23.895393975392174 32.32075001725079
1 0 1 26.959677260166643 23.2241941446538 33.05544839339585
2 0 0 26.714374359365838 23.79414795185114 33.833013984580816
3 1 0 26.43025090901454 43.94774625291034 7.7440430234280395
4 1 1 26.580194337576604 43.40793853144201 6.869758985802561
5 1 0 26.25148282196681 42.60019460324362 7.243972028366869
6 2 0 38.26557375201036 25.46202275574809 38.49334235356671
7 2 1 38.039179279038386 24.638217139770042 37.80424659821966
8 2 0 37.25850869531572 25.007431025794947 37.16271218674117
9 3 0 16.91567860086818 36.07094676022648 22.93889458487057
10 3 1 15.905923716225132 35.96095918317441 23.136277938580253
11 3 0 15.888587333775762 34.97334155760395 23.4157689108801
12 4 0 33.807504730800545 18.47924483351707 24.689554728608893
13 4 1 33.94445857889201 17.88204360775976 23.831355270041236
14 4 0 34.032788663693395 16.876246967149093 24.156245866248184
15 5 0 17.690567063695184 18.8055873018047 25.452389061543396
16 5 1 17.06331710928132 19.47860941723855 26.04433912470858
17 5 0 17.09832665130721 20.44416866104589 25.545242266120784
18 6 0 12.982927138207463 21.64823713234449 15.31388215560645
19 6 1 12.28517490450498 21.513896573616268 14.456282248692752
20 6 0 11.481161573001824 20.764005209349722 14.397585795629684
21 7 0 36.485141526128835 7.125812294773026 39.027891020688394
22 7 1 37.20078166525717 7.548861836925879 39.607396994954016
23 7 0 36.813244180071095 8.426486709438535 39.4776432294574
24 8 0 6.0480222328016 15.016349775025914 8.768330278224152
25 8 1 5.229160754297863 14.616872037706514 8.24080336761288
26 8 0 5.2795952306683676 13.535832395173886 8.396551595338112
27 9 0 26.492568697804085 12.578265337173443 27.982360734112817
28 9 1 26.639372401182655 13.597406546098808 27.71418685130336
29 9 0 25.962574720787313 14.168835260818202 28.279735385425973
30 10 0 33.674047511429194 15.51481511975951 10.555554043521758
31 10 1 34.40391403613059 14.751033910713408 10.768144194236084
32 10 0 34.1787860791697 14.369885096212098 11.743206277921786
