ITEM: TIMESTEP
117
ITEM: NUMBER OF ATOMS
66
ITEM: BOX BOUNDS pp pp pp
0 50.0
0 50.0
0 50.0
ITEM: ATOMS id mol type x y z
0 0 0 27.15240598954054 23.910007972627405 32.32895717628092
1 0 1 26.959679827542566 23.222072887639293 33.05529874936423
2 0 0 26.716135995054504 23.812293055022913 33.825042309748625
3 1 0 26.436810759350053 43.97206327516822 7.743191485554842
4 1 1 26.58019909925371 43.40674306605215 6.868100076907453
5 1 0 26.24141888591572 42.59267584851063 7.2689939525626075
6 2 0 38.265170406950865 25.47331435042179 38.49792699184944
7 2 1 38.041101975554476 24.639613363477675 37.80412029193986
8 2 0 37.2476937238576 24.97640725509374 37.13367201045651
9 3 0 16.937700809358127 34.73522140697198 24.497086593132902
10 3 1 16.231388900823227 34.771724011420176 24.14456910467476
11 3 0 15.854381435577775 33.975949530371224 23.97303138942492
12 4 0 33.80675412405264 18.482960726383038 24.693624037992436
13 4 1 33.944401291652625 17.88217095294033 23.830813104775043
14 4 0 34.032612057330695 16.87264465053679 24.163433649614745
15 5 0 17.697649904997874 18.810493870398307 25.43971190276048
16 5 1 17.062793086425845 19.47771882948608 26.045424557933536
17 5 0 17.10011541427374 20.448878999291175 25.540336999299917
18 6 0 12.85658399251099 21.59267136676063 15.207814527732728
19 6 1 12.284599165698523 21.51098680908181 14.45967192835107
20 6 0 11.615131537996318 20.863695943212935 14.447103094056203
21 7 0 36.483498140778515 7.101931791150045 39.02275358761572
22 7 1 37.20152864210718 7.54946326999411 39.60802006403707
23 7 0 36.80265301115018 8.441558673336553 39.47261295370783
24 8 0 6.056194695013813 15.00328547006162 8.77554515969647
25 8 1 5.227674597173195 14.617972262930286 8.239691221274136
26 8 0 5.295545394828809 13.531311581727067 8.408251972892469
27 9 0 26.482366226703796 12.576619505031738 27.99219066135482
28 9 1 26.640245202580342 13.597345766344707 27.713357429379116
29 9 0 25.95911135040308 14.169489789640108 28.282907564306214
30 10 0 33.66855797917919 15.528360845266667 10.541629112666786
31 10 1 34.39989602539653 14.753498386428003 10.764191264267042
32 10 0 34.19428135544554 14.351531985446428 11.74887687160033
33 11 0 33.31556471032849 46.15397093480999 13.173843270747449
34 11 1 34.333268553619966 46.33966090763606 13.362111513401254
35 11 0 34.55446477516454 45.65720294063568 14.150557582722419
36 12 0 24.976580678737232 48.21890519481923 36.99605306207273
37 12 1 25.350092525063605 47.68898382915093 37.80443293300316
38 12 0 25.184189139126875 46.85925606907843 37.369791377231394
39 13 0 35.393156719644736 26.844412362333586 45.854967440067284
40 13 1 35.66388441732397 25.894339922462922 46.16811350844394
41 13 0 35.5471600503708 25.28505358869442 45.332066129743914
42 14 0 12.642515519895271 29.070855574649908 23.004573084718963
43 14 1 13.350011052037766 29.18850670700818 22.44174251042481
44 14 0 13.48631024135381 28.270208081204586 22.40163284105103
45 15 0 31.744495847599424 22.471117427425163 43.296970805450876
46 15 1 31.69073538689638 21.952191571714952 44.17268730790011
47 15 0 30.70205840558631 21.83672833451175 44.39318714355863
48 16 0 44.04012776122186 37.13809620878833 44.521817923120466
49 16 1 43.608139819256834 36.744427241047084 45.31500114586152
50 16 0 42.766492175275374 36.737878533751015 44.873121000116235
51 17 0 24.053574786495457 38.909459690743766 42.958011023472714
52 17 1 23.621235312764096 39.93099618490171 42.97216929290297
53 17 0 22.941610120287354 39.96467688625163 42.08903982902052
54 18 0 39.79375471890249 4.570766497884924 18.786292376897205
55 18 1 40.53657226709538 3.7757030482834972 18.58145279863779
56 18 0 40.902018743560745 3.4404583323595506 19.626785113220585
57 19 0 37.02058400162359 12.357590751392067 15.113160022278944
58 19 1 38.03676540498846 12.417126891738954 15.542006266733228
59 19 0 38.524320179803894 13.30042312967577 15.077239612375974
60 20 0 11.877727460612109 44.22676355056073 30.610762201587463
61 20 1 12.536117785000163 44.970294220412065 30.870820189401005
62 20 0 13.344621332416637 44.46925664825376 31.238041053894182
63 21 0 9.79457450182724 44.20963608354172 33.87980646853651
64 21 1 10.487897020428017 43.66767527398263 34.18013443323145
65 21 0 11.028171627026186 43.5890231094832 34.87375453520442
