ITEM: TIMESTEP
119
ITEM: NUMBER OF ATOMS
33
ITEM: BOX BOUNDS pp pp pp
0 50.0
0 50.0
0 50.0
ITEM: ATOMS id mol type x y z
0 0 0 27.160734014175 23.83342041116182 32.3083999089843
1 0 1 26.959047497460507 23.232475064923996 33.05672997464426
2 0 0 26.71860021088636 23.724736367431515 33.825678025700675
3 1 0 26.369253021541756 43.75328724553599 7.778959405693578
4 1 1 26.5848215272542 43.41118953125954 6.858201770037347
5 1 0 26.238458976878253 42.74265669858543 7.393948188827297
6 2 0 38.22472629275993 25.39705673126451 38.41421972703698
7 2 1 38.03548242930151 24.64179204576326 37.80217232050712
8 2 0 37.35908351969695 25.015401703120244 37.2753581450626
9 3 0 16.833179429610084 36.09533471875462 22.945674623499013
10 3 1 15.912997872578762 35.95424804909567 23.13699441923424
11 3 0 15.857869186557675 35.05649855287797 23.397546003758272
12 4 0 33.81722428545487 18.444502697307836 24.61863463990796
13 4 1 33.94420376399133 17.880764851153415 23.838117857102624
14 4 0 34.02954981012714 16.932549368286864 24.117705337687987
15 5 0 17.627678787840733 18.814796744186882 25.5387734818021
16 5 1 17.069310361475146 19.48259522117393 26.03377148875346
17 5 0 17.064374832057354 20.371358182762698 25.628009768108868
18 6 0 12.900933969633112 21.48999409153623 15.435620148379838
19 6 1 12.288616600424298 21.529954275728432 14.436483970111448
20 6 0 11.50829974996869 20.66576995253708 14.592551239725042
21 7 0 36.38664304319157 7.4612003372802285 39.01359514955101
22 7 1 37.22150841882005 7.539752394956394 39.62063278865661
23 7 0 36.58018349235693 8.2367084896532 39.280271442068006
24 8 0 5.936704260374618 15.058204521063434 8.685891457795094
25 8 1 5.2422917615034414 14.61175542381669 8.25053924204265
26 8 0 5.180366166997628 13.575410977984879 8.322814654801705
27 9 0 26.532530094836382 12.619003727065982 27.939471076638487
28 9 1 26.63276929424024 13.595916319361876 27.720543318031474
29 9 0 26.026738196739217 14.14937828699616 28.221678338687372
30 10 0 33.721669391425195 15.430475130148242 10.627636932131859
31 10 1 34.40268112175681 14.751075495240384 10.769867645484105
32 10 0 34.15094263085509 14.453480146828356 11.643194599355402
