ITEM: TIMESTEP
119
ITEM: NUMBER OF ATOMS
66
ITEM: BOX BOUNDS pp pp pp
0 50.0
0 50.0
0 50.0
ITEM: ATOMS id mol type x y z
0 0 0 27.1596696852302 23.897968777121495 32.305414118023535
1 0 1 26.959026824672932 23.224802782860163 33.057177536632956
2 0 0 26.718909111277615 23.781392074741802 33.81869090244826
3 1 0 26.39824593047254 43.89459202449631 7.800550393009979
4 1 1 26.581999443851196 43.40364534048701 6.860072699246772
5 1 0 26.250520975706344 42.71947503109653 7.339492870722169
6 2 0 38.24126688140826 25.49481937939361 38.48374696770647
7 2 1 38.040879890160475 24.635831894287865 37.80145983360486
8 2 0 37.277473636810896 25.01559496295411 37.18681441166027
9 3 0 16.8328707235583 34.49078582994809 24.44985681219755
10 3 1 16.224635013640587 34.79171882731281 24.14083232017214
11 3 0 16.074351206313466 33.913845683421 24.083897561864923
12 4 0 33.807390845206506 18.484236425316634 24.68436717551707
13 4 1 33.94429463493159 17.883145037898643 23.83181895818258
14 4 0 34.03500583287457 16.856969564065317 24.15634531114969
15 5 0 17.69791241830802 18.76952410492717 25.458350265375245
16 5 1 17.064088736326465 19.4798613347159 26.042525024438774
17 5 0 17.07870339189705 20.455022967042666 25.568359550262574
18 6 0 12.776909465471267 21.44337764527661 15.319342773210124
19 6 1 12.287116075964802 21.52515436783091 14.44130895151379
20 6 0 11.654611395046585 20.786161160836677 14.628860057181537
21 7 0 36.42743845850595 7.256815645984704 39.008631048870214
22 7 1 37.211284917840544 7.547832918338233 39.6146923232522
23 7 0 36.70268350662119 8.312578470388793 39.380040742733904
24 8 0 6.000936625433405 15.035715282240494 8.733321913016164
25 8 1 5.235074626907586 14.619649687611274 8.244668229550577
26 8 0 5.232089866035351 13.471740185572797 8.370560854507408
27 9 0 26.50039898166955 12.543632432527376 27.979371615632804
28 9 1 26.63795528144971 13.598836236924736 27.715284488879114
29 9 0 25.976624149538267 14.176868719958074 28.265436643019285
30 10 0 33.65477089326701 15.513019358155265 10.587778730286978
31 10 1 34.40256957735108 14.752052299447588 10.761651484904766
32 10 0 34.155421359140504 14.396314744259362 11.73024777668623
33 11 0 33.33655059580747 46.18890971296728 13.145573912133797
34 11 1 34.32877236756738 46.33688589926301 13.363334352250146
35 11 0 34.60609812111856 45.666928077382096 14.159805621119757
36 12 0 24.94112171931772 48.06940244075609 36.90511630508205
37 12 1 25.35610049946962 47.688464472614086 37.81788677209492
38 12 0 25.1239928501287 47.01850363300009 37.2446460827393
39 13 0 35.401108097369345 26.854846392604966 45.88950690452533
40 13 1 35.66375541096474 25.89704317922077 46.165827817606505
41 13 0 35.55862719820551 25.24949270885611 45.34577982285072
42 14 0 12.669047430335143 28.77758005983858 23.00480632424078
43 14 1 13.361802910368278 29.210112607580623 22.430306669160668
44 14 0 13.263891424592636 28.20529732334919 22.58046089687036
45 15 0 31.7644080216562 22.471719590329574 43.29455745606125
46 15 1 31.688292239650032 21.951683546611264 44.17126408687407
47 15 0 30.702008654057785 21.825835607394986 44.411006321300555
48 16 0 43.808292446703916 37.13083376165095 44.41437429261154
49 16 1 43.61308078233897 36.73821383729606 45.33396943149599
50 16 0 42.919475041663354 36.844814711528834 44.67712036144286
51 17 0 24.075288083746575 38.92530511361772 42.99601799764867
52 17 1 23.621089777446947 39.92680201526824 42.96968591410101
53 17 0 22.92195944232598 40.014629162472794 42.09177168113604
54 18 0 39.85267582820607 4.507324913568767 18.76356609603627
55 18 1 40.52827961871759 3.7843796203894473 18.580981026138705
56 18 0 40.97630438114964 3.3634365788058362 19.657601478362377
57 19 0 37.04677881530424 12.382783637613773 15.105788253777423
58 19 1 38.0367330438303 12.415056275009164 15.543786091994098
59 19 0 38.50842677766493 13.303149086410572 15.067746801285233
60 20 0 11.847999846819684 44.2522330061024 30.59010220103511
61 20 1 12.542419463606988 44.969392789444896 30.86351690695467
62 20 0 13.358619870982515 44.50930357747727 31.238166023507063
63 21 0 9.815339216549392 44.29768895808432 34.050892318872705
64 21 1 10.487129110178358 43.65016799733643 34.173825378982364
65 21 0 10.934181266778973 43.730358281895114 34.941136570682744
