ITEM: TIMESTEP
120
ITEM: NUMBER OF ATOMS
333
ITEM: BOX BOUNDS pp pp pp
0 50.0
0 50.0
0 50.0
ITEM: ATOMS id mol type x y z
0 0 0 27.13299338193712 23.89940130925966 32.38948214118028
1 0 1 26.957265274522953 23.2223540341568 33.05673124725053
2 0 0 26.720520097115845 23.812459974712624 33.80314564822455
3 1 0 26.453726488509368 43.886711860698306 7.617525323078111
4 1 1 26.670092243508165 43.403201537287934 6.506476701789639
5 1 0 26.248408696248525 42.57843179063496 7.225103893561113
6 2 0 38.97766421152179 25.15150009815916 37.52064094830176
7 2 1 38.23105929238782 24.511738202472806 37.53726515243723
8 2 0 37.50405772709772 24.705446588716576 36.8704382579729
9 3 0 14.461725094634565 33.69111349203209 22.474005049386562
10 3 1 14.424300817410732 34.48642117471959 23.05748964538604
11 3 0 14.805020801704908 33.97238195236331 23.80551193180923
12 4 0 33.81523086931815 18.46033618749208 24.620698500384435
13 4 1 33.94434031300419 17.87659879669663 23.836326861780094
14 4 0 34.02424943801969 16.955579889565243 24.155807459271116
15 5 0 16.560204179337305 5.344802733586551 38.46524543918724
16 5 1 16.135010922135184 5.247798977597821 39.37988560530802
17 5 0 16.042967821903517 6.199147990978229 38.95847641401872
18 6 0 44.34044339903324 39.70938047726492 8.273932519142171
19 6 1 44.693492186177636 39.58447148101019 9.206973573954919
20 6 0 43.799705207474304 39.50925925472754 9.792214725920859
21 7 0 36.50232640633797 7.140993792257599 39.04256580353562
22 7 1 37.1999651360564 7.545855867816496 39.60640954220665
23 7 0 36.807246975799 8.459889293700611 39.479174621911646
24 8 0 3.7286077567733416 15.633994773230501 10.471178690944992
25 8 1 3.717409137237773 15.175979367289628 9.547247900888438
26 8 0 4.347771830523549 14.424010908841277 9.501051448123679
27 9 0 10.714816945822625 18.216222621034834 14.025840016390426
28 9 1 9.99844299529655 18.81210795813544 13.665267490455454
29 9 0 9.90184618097776 19.051385150364347 14.628491486192502
30 10 0 32.32951401642924 16.274140249851985 10.660967573825472
31 10 1 33.43376640760106 16.42218737349589 10.293272356564776
32 10 0 33.85835670103274 17.35246238916829 10.072859321247563
33 11 0 33.37477702892197 46.162059984498384 13.187551723454424
34 11 1 34.33332205472916 46.33660772393101 13.36512387768919
35 11 0 34.49083033068667 45.695976472574216 14.08670231509334
36 12 0 40.70885571441361 37.87892095409511 11.079689516246223
37 12 1 41.70036259595862 37.93644403018235 11.145817071690372
38 12 0 41.90130127558611 37.44089596639347 11.986046241250408
39 13 0 35.405912879851584 26.78592354183353 45.86154332637985
40 13 1 35.65748105511188 25.888359668493038 46.161776250935745
41 13 0 35.54249112453539 25.339909252280627 45.36508243622197
42 14 0 12.604202809248163 29.04166837749035 23.03750718507826
43 14 1 13.356814027054302 29.195326676959542 22.442136579346748
44 14 0 13.48048940012592 28.237183748501746 22.408825595056932
45 15 0 31.44336508493998 23.673965941100032 41.84877488681917
46 15 1 31.567570503957693 23.057076421464586 42.727617389038976
47 15 0 30.77815846211077 22.701276125290182 43.21788578284946
48 16 0 43.92048063746928 35.97710208331967 44.29247986825437
49 16 1 43.54921408365231 36.107011716686294 45.19652496878762
50 16 0 42.66535520604395 36.30664379225621 44.77653871832799
51 17 0 44.283574665879684 22.569203996820118 25.403630554491773
52 17 1 44.524927915701994 23.26834569678183 24.754377445875484
53 17 0 43.63738474519337 23.68671688746134 24.55734126554539
54 18 0 35.20269334493344 7.442806441567797 26.109650725026246
55 18 1 34.7084235617464 6.62906338069378 25.829465623379242
56 18 0 35.33049409566865 6.170967174658283 25.218449777376073
57 19 0 37.098124315839264 12.294620566519857 15.197115499475354
58 19 1 38.03223948238538 12.428567661743973 15.530029366171357
59 19 0 38.466578137379024 13.217874910997253 15.114793162249168
60 20 0 12.775945963370217 43.76406626523101 31.013180758497818
61 20 1 13.524158718592897 44.312798589205734 31.34002758514427
62 20 0 14.342991184706072 43.73985847711388 31.67707720334014
63 21 0 10.171695809568583 43.46670556885645 33.30880951272752
64 21 1 10.46055974591293 43.78824688923323 34.186515558811855
65 21 0 11.058431628396475 43.01117057649024 34.076686422063226
66 22 0 5.471405258210066 26.688561605021803 44.91193831767185
67 22 1 4.866744941553048 26.725761393214352 45.97873574833455
68 22 0 5.583376967053122 26.251042317395335 45.12710402957413
69 23 0 45.61375797249955 11.954635524181723 34.42633155489682
70 23 1 46.07717065806433 11.176631686492005 34.04818412004381
71 23 0 45.27891502607408 10.598385300133996 34.02545265021473
72 24 0 37.78333925066259 30.626546846205652 41.27793809871194
73 24 1 38.450031890770724 31.3399239957498 41.31102939407902
74 24 0 38.09435754746244 31.747273720193284 40.483035791245605
75 25 0 46.14888769475331 35.440714019691924 11.649479853196121
76 25 1 45.34928122773579 35.8737427930816 11.994625556598834
77 25 0 44.470901166797866 35.541397676614466 11.651852567552837
78 26 0 22.96908761413772 14.139359731978153 27.83374792513132
79 26 1 23.594227113910073 13.747481617265592 28.489122201342475
80 26 0 24.485888660920686 13.420388046692443 28.212697043608458
81 27 0 25.512877586504782 11.454342379796282 10.248716481907154
82 27 1 25.840771984202846 10.522721926757216 10.24823470803364
83 27 0 25.212062787371284 10.099971081209794 10.92554489104982
84 28 0 9.006574021584544 28.010427626367747 29.772845814065015
85 28 1 8.437814341890919 27.498299624516292 29.1456431024184
86 28 0 9.15562030942388 27.075145435280394 28.59641062789284
87 29 0 30.98051321220011 34.780012503023634 16.942237840252417
88 29 1 31.61259919904197 35.158664421872665 16.273792730779338
89 29 0 31.973822991853 34.2481816603061 16.155195375791227
90 30 0 48.173173101260716 15.207032930605502 43.99982437882607
91 30 1 48.06873826147466 14.881690416378964 44.92549319092899
92 30 0 47.92758890476795 15.832468342693172 45.078532878400814
93 31 0 28.61300645794648 3.9990049428914074 16.974081850849036
94 31 1 29.333225770639157 4.137911721913175 17.6286034469372
95 31 0 29.25680518520451 5.096318992340983 17.9413807205719
96 32 0 9.540896179539184 39.070772086406066 10.373787359540978
97 32 1 8.830962726638509 38.981594616739436 9.716395475374354
98 32 0 9.119144877731403 38.10788202749305 9.364196373673964
99 33 0 43.51994539652113 38.1080755019115 20.78333741429614
100 33 1 43.29603609070662 37.450646254666715 20.08324429937021
101 33 0 42.75421794216846 36.76053254385532 20.596412424045308
102 34 0 1.6859460245509985 34.25860817663785 10.99763586247783
103 34 1 1.0893717641953056 34.715127019677865 10.359285064937486
104 34 0 0.6269485761132373 33.916038667369016 10.693608567423329
105 35 0 37.39815963744228 30.685593283344836 20.643280129006676
106 35 1 38.18482132320093 30.544387140418152 20.086088414461656
107 35 0 37.7031090763746 29.77931699203161 19.683649899508275
108 36 0 36.457313691425405 45.47316704884323 45.772208261240095
109 36 1 36.869075621537846 46.37597303902383 45.799761920989745
110 36 0 36.531289856224234 46.38637728668494 44.84854676886156
111 37 0 14.525728123728788 19.10074830502399 29.781181906939146
112 37 1 14.065387904316964 19.481604339798917 28.99599124801424
113 37 0 14.209991951558838 19.19239040433052 28.061786099252302
114 38 0 6.696622313462133 25.394648298497017 18.095344947849096
115 38 1 6.298543203101767 26.1051597215576 17.5142029548262
116 38 0 6.7335651515938375 26.995365496576788 17.613886483776803
117 39 0 23.45299931468823 32.25880119184736 16.17413535770641
118 39 1 24.34481999344431 32.600534857789896 16.36875228793085
119 39 0 24.213387986449135 32.38060764954905 17.32217613085861
120 40 0 21.924519284240752 43.07356221065745 24.488588755643878
121 40 1 22.87073930960204 42.846463862274746 24.362158309270256
122 40 0 23.238123672455366 42.16691304791801 24.992369582199345
123 41 0 31.770024700509012 26.804458159259177 14.448557541410832
124 41 1 31.08690975279265 26.149330240110896 14.741721433669715
125 41 0 30.78578866430998 26.73811910730862 15.490530902474493
126 42 0 23.46737294144933 46.21130156950778 30.71320796048428
127 42 1 23.747062902460154 47.02885632221048 30.254696421303585
128 42 0 24.640976170698078 47.18836014757346 30.615101613944585
129 43 0 4.736869227534526 21.262320074099947 15.294033096249503
130 43 1 5.368904049192088 20.52499445554095 15.138390684496073
131 43 0 6.04465842621328 20.2411746321871 15.843901156334795
132 44 0 9.698432106188267 21.247776642840403 42.83397846736631
133 44 1 9.496760420876496 21.406068114478003 43.806351236097285
134 44 0 9.29534201250699 22.358214415024992 43.99121098246266
135 45 0 29.472932680647176 4.2309819608097285 2.39622348363195
136 45 1 29.965197427723567 4.076743959237864 1.57731093043418
137 45 0 29.988099236751825 5.0324930071478 1.3454850451505167
138 46 0 4.574885312703546 8.750253948985808 28.62304338770711
139 46 1 4.758437269889551 8.869505553796893 29.59705481818351
140 46 0 5.669438156536103 9.397116445484782 29.850060808228424
141 47 0 43.51318697058099 7.206012802364944 38.747586859682976
142 47 1 44.18018185815093 6.418516560316509 38.60944566074658
143 47 0 43.45257867603003 5.9050261835568 38.22456574711798
144 48 0 4.245401786669553 18.339808579740076 4.723210476343054
145 48 1 4.3104157220330235 17.707502753996533 3.9758657787045464
146 48 0 5.276047170845432 17.572577989716383 4.137351852923291
147 49 0 15.785047090750366 21.134044456919177 38.29262904113267
148 49 1 15.457993083101767 20.765229915979912 39.1611810652805
149 49 0 16.134998921388718 21.277321861692126 39.67423236389629
150 50 0 8.48878342489964 46.707451153891235 12.849750279138297
151 50 1 8.142372104394775 45.91809432124884 13.294943138082049
152 50 0 8.898737574137579 45.460342008515106 13.794649507203463
153 51 0 20.15846161210671 34.80536970900752 12.504756004514904
154 51 1 19.362981560235376 35.36686639337559 12.30851388806606
155 51 0 18.570426252727405 34.81189837730274 12.453211600705378
156 52 0 46.65620355508425 30.16131390776312 41.346106570472635
157 52 1 46.84232161049378 30.92015845855118 41.94700792587824
158 52 0 46.90463597494067 31.740951206268058 41.43061361604931
159 53 0 7.635777034053706 16.84211750997346 9.759630992171148
160 53 1 6.928362061311002 16.130300882354106 9.645568931028672
161 53 0 7.1488634933200546 15.48481967884152 10.353761807750258
162 54 0 17.05050880247349 30.87894606854997 31.291293891238855
163 54 1 17.22239719988094 30.661207387880765 30.30856466741469
164 54 0 18.235615411026757 29.856602004715125 30.2027809657519
165 55 0 2.3489363741575895 38.840870890407885 22.328541833763786
166 55 1 2.0336461459100783 39.567559132597665 22.943890084372715
167 55 0 2.74493968320654 39.03215740382016 23.400043954118566
168 56 0 6.213164252508956 15.136305642767859 23.666349039273797
169 56 1 5.879052940710157 14.252443485360827 23.36390215491622
170 56 0 5.6015416554296875 13.908983639394666 24.22406951736975
171 57 0 43.337782147137695 26.980213791716302 37.2930936704927
172 57 1 44.413275604290135 27.168841200314677 37.17017555171569
173 57 0 43.54865054459003 26.83852570616538 36.588098764428466
174 58 0 22.607127621134886 4.859558961526447 35.2013148458467
175 58 1 22.730996303929064 3.7374230180458605 35.29875269969904
176 58 0 22.176652382712245 4.674533338637489 35.512857936657355
177 59 0 12.037579327328684 7.8309501268169734 26.862554725671814
178 59 1 12.046381706999778 8.060867502752416 27.91985127407148
179 59 0 12.632503494079632 8.70606884455041 28.465414092522533
180 60 0 26.779894175080603 44.340049795316645 4.902617233149939
181 60 1 27.013887245683513 43.31837849802014 5.072653013805044
182 60 0 26.38115053019726 41.726864719888916 5.4827263698606865
183 61 0 21.42381135291302 27.247834250430884 31.511053056452443
184 61 1 21.33070664843454 26.69170129690787 32.325276202720936
185 61 0 20.583183376880186 26.06950408089804 32.168017288767906
186 62 0 10.008812367355775 48.40699419969707 41.832500022358886
187 62 1 9.088881335657922 48.11007887438786 41.9465204710563
188 62 0 9.302479066897222 47.39126271607611 41.32198879764993
189 63 0 44.81139076572765 6.944488823511186 12.10450913449478
190 63 1 44.54574395943594 6.485989557420468 11.257142770630162
191 63 0 43.89891953028416 7.203554041755265 11.012683761173152
192 64 0 42.782651607885 10.193595823147707 30.818216687058673
193 64 1 42.957688365813894 9.535831922964912 31.5471885923657
194 64 0 42.11274228569533 9.14198084198857 31.864627781193832
195 65 0 6.979467474606574 39.87157049672583 33.43487020532489
196 65 1 7.590874929806888 40.338863023772 34.0538062797181
197 65 0 8.476984891589568 39.725114521028644 33.75345228660177
198 66 0 23.764099031252545 21.22037994493155 45.052547385404374
199 66 1 23.24494080624457 20.713350063190816 45.8070670794871
200 66 0 22.38613580784059 20.30537647646509 45.52995156058186
201 67 0 5.487188326710176 6.524768386245874 45.07051479415721
202 67 1 5.58043297990216 5.8336542880608935 45.83915366968379
203 67 0 6.212327991753659 5.967238323310841 45.01180371191407
204 68 0 20.934588717908895 29.51676369101692 27.976589158160998
205 68 1 20.63903924930092 30.458010957470226 27.801606681343568
206 68 0 19.99863848527141 30.90921863434619 28.41066215272137
207 69 0 45.72562588931523 41.83283859105921 37.22237973514271
208 69 1 45.31058374928404 42.5680915953897 36.696522434198904
209 69 0 44.112967420961745 42.57967844095041 36.58499878541887
210 70 0 22.976643781775763 35.72285408990639 45.723420018468914
211 70 1 23.884095160147073 35.73789300892424 46.088678695988236
212 70 0 23.855617739729578 34.800313251136586 45.7881055342983
213 71 0 46.62052401203767 22.608352302250616 21.77602597167498
214 71 1 46.4744281092424 22.031214699766345 20.99230314525964
215 71 0 45.48645245562548 22.128404244284848 21.011990416144112
216 72 0 30.991151564722767 11.500479611134825 10.960711871345787
217 72 1 30.564247856960318 11.201470708323384 10.142981476571276
218 72 0 31.027884931820964 10.37121731837518 10.331012487064283
219 73 0 19.643621021933768 40.4672010857961 9.954551886463145
220 73 1 19.93070650144702 40.54491021934771 9.005167275354808
221 73 0 19.82625158540342 39.58580199659667 8.892398436972329
222 74 0 35.307623854749 15.113421438221676 3.994140183205533
223 74 1 36.162927913375086 13.772653385637181 3.571842727425675
224 74 0 35.165250301131785 14.97813949122681 4.025328301750737
225 75 0 8.329112983210463 20.736729222255686 21.608900125571594
226 75 1 7.564920183621151 20.11222633475676 21.520601607608995
227 75 0 7.737041433986443 19.31087165907565 22.069960655407684
228 76 0 9.332296678554627 14.541342372676391 18.733470432308952
229 76 1 9.044247042068202 13.48605891477583 18.85807302256223
230 76 0 9.995367386667487 13.978939128607637 18.58341720332585
231 77 0 11.73827750491482 4.244144236015287 24.604667054803116
232 77 1 11.891100437918862 3.2849935876558907 24.68634320434042
233 77 0 12.808601078979077 3.3621521992301773 24.33195519220521
234 78 0 5.695288178525319 12.148283831049099 5.289866400965991
235 78 1 5.964211514588852 12.845433909322681 4.654950777803373
236 78 0 5.802144109090515 13.804046010357675 4.872768670741267
237 79 0 10.182129521546683 12.82425515118952 22.397177696231893
238 79 1 9.792195079992242 11.95519182968742 22.64815342492612
239 79 0 10.32528554898975 11.808753260989672 23.45322246121481
240 80 0 43.781695146487294 23.001998233682304 40.31192091092038
241 80 1 43.876820342316414 22.81081094781236 41.28706868623254
242 80 0 43.69129466509055 23.72723522027428 41.63376545035703
243 81 0 25.77089669694701 11.395271358542153 34.52329216489947
244 81 1 25.785842518860456 10.445090160602545 35.07896272228269
245 81 0 26.120791201357427 9.81214027464068 34.4361111515383
246 82 0 43.45523678069582 2.604379000842843 10.03448590960376
247 82 1 44.20575805096038 3.1289490014284733 10.423525876020362
248 82 0 43.75417875511886 4.142671079237339 10.62970174203831
249 83 0 20.997231088803325 19.434933131628505 5.6126121433088825
250 83 1 20.95739433705948 19.011336954792622 4.414061242178644
251 83 0 20.02288762582398 18.630276431297535 4.7455693156266
252 84 0 16.530466189124333 38.42953055368189 23.061605474372953
253 84 1 16.58483617000174 39.255750933205576 23.61579873564323
254 84 0 16.711548552986873 38.81006542444831 24.482108603368236
255 85 0 45.924049384535365 39.00814468221016 30.999505493037553
256 85 1 45.54306980554605 38.26569530291695 31.525523748824295
257 85 0 44.89235309996041 37.68362746801095 31.02319071999925
258 86 0 25.570446734862028 36.10071517003463 40.62772165397906
259 86 1 24.913322478119557 36.64581201812676 41.14211185064361
260 86 0 24.07540549692829 36.143805011724254 41.280308094227
261 87 0 16.969139257439515 5.0972522165737315 19.6248925883619
262 87 1 16.066842033599336 5.170140028781522 20.02888997809366
263 87 0 15.600776774807553 6.0107375084507755 19.78955910039514
264 88 0 43.571531529209466 18.767300160776074 14.178561285514053
265 88 1 43.86833165443252 19.159874765483394 13.331000025947757
266 88 0 43.03605319166104 19.377537045052826 12.838201564021658
267 89 0 39.6869956002213 34.10262184187219 44.91068250446675
268 89 1 39.40712477486745 34.756334232300546 45.61683435240968
269 89 0 38.549505304708255 35.21904591651258 45.435128803015736
270 90 0 39.83268719636217 9.050905089189712 14.56619629063632
271 90 1 39.544316471258135 8.694080192157035 12.979034195052899
272 90 0 38.581257856260954 8.486311809840219 12.877844763609932
273 91 0 17.084938584558184 8.081003084812716 10.151011428580755
274 91 1 16.889652302742 7.772987385850822 11.086964195985662
275 91 0 16.829994095108027 8.6352004187181 11.837939462543382
276 92 0 10.532131524607914 32.202438118085034 32.319964811387166
277 92 1 9.757587691473708 32.860775506581994 32.620253611706005
278 92 0 9.273281659043485 32.66564583172235 33.509954586514
279 93 0 20.12975013774777 9.643776575251644 10.246647421907236
280 93 1 19.997385369232497 9.531916914679776 9.301926814918543
281 93 0 18.831226812794863 10.116957892514487 9.41601206023904
282 94 0 25.35677119349537 42.047213473037615 35.71255850651325
283 94 1 24.966377571699017 42.69411678115933 36.35820873447342
284 94 0 24.077938831684527 42.446025317262695 36.72653261408758
285 95 0 11.130416209394765 16.48376997054099 43.56000651035363
286 95 1 10.709662733389385 17.253546138598338 43.98792891880365
287 95 0 11.461865581815818 17.65206836837826 43.48300127584567
288 96 0 15.932775534207439 42.465394092685386 23.03922149973803
289 96 1 15.393904849453486 41.9562037381079 23.690552426472372
290 96 0 15.068765477272176 41.07777447592306 23.274300319286276
291 97 0 30.761568177039326 3.113849617960921 6.730509022878556
292 97 1 31.408627031472015 3.0266939504447326 5.983543754415208
293 97 0 31.705913906067238 3.9311110659125768 6.279523647009084
294 98 0 18.246495863860666 38.89243808103271 36.31157046260998
295 98 1 17.278993970123526 38.80772154302831 36.18240734640708
296 98 0 16.875557283874237 39.106886338999786 35.33614044732953
297 99 0 30.381690250862583 23.85020698136387 38.808110160382135
298 99 1 31.322955413781923 23.907575633361258 39.018357912931585
299 99 0 31.718057335813718 24.14101087317672 38.14177706107519
300 100 0 6.085384964534666 40.592168797609446 41.59210081456785
301 100 1 5.200243608903818 40.87517711540188 41.95920740756498
302 100 0 4.7650367348366265 40.35960078043776 41.23938422013897
303 101 0 39.69769697392958 11.229701018863498 4.056202034122003
304 101 1 40.462044694999385 10.579080172858244 4.1305331605271025
305 101 0 40.8628354633119 10.72272202066587 5.0447908158016315
306 102 0 27.195205972775376 24.156388207674222 43.3989841124716
307 102 1 26.609384807269475 24.723320230553696 43.94338536882089
308 102 0 26.649487449704353 25.659480546664486 43.64789924584733
309 103 0 29.610237392778 34.65771084913811 15.418606776418674
310 103 1 29.344387149733507 35.72862801986849 15.6619321076687
311 103 0 29.572695321576813 34.66198379230168 16.043877506693402
312 104 0 38.006071969849 11.611827448964448 9.90692654377348
313 104 1 38.29280784219175 12.589289816638285 9.546169039185042
314 104 0 37.61274909429306 12.34750347470616 10.306803718240268
315 105 0 34.98388037647662 38.72747789059898 11.623199134388406
316 105 1 35.94328899361287 38.728841257333286 11.395370657129192
317 105 0 36.36635417132584 37.830694151598095 11.475441101491839
318 106 0 23.958047266022323 39.700205950912206 41.18151680838753
319 106 1 24.347707801843324 40.600848096402615 41.23623871564478
320 106 0 24.15146997520392 40.73464399256983 40.2780721493138
321 107 0 26.40342939967257 34.14947419509965 6.329821715160615
322 107 1 27.11065810331395 34.14127296526566 5.648698549094777
323 107 0 27.558528700933433 35.00758056664362 5.861138923737535
324 108 0 24.120541048100506 11.133430854957947 15.197071119658842
325 108 1 23.79336813788082 10.249864693479148 14.840296869415019
326 108 0 23.012703364512227 10.905055369074567 14.94332549506047
327 109 0 44.80039315003185 25.70017126509305 41.26951781490866
328 109 1 44.658295433135045 24.827027855344898 41.74763276017846
329 109 0 43.932531857158345 24.476220630883223 41.23249428685089
330 110 0 22.006984489639475 35.10629066466052 4.021892637404153
331 110 1 22.73658450612879 35.702570805803745 3.7018964120490865
332 110 0 22.957980423986744 36.48691237390443 4.25071062271222
