ITEM: TIMESTEP
121
ITEM: NUMBER OF ATOMS
333
ITEM: BOX BOUNDS pp pp pp
0 50.0
0 50.0
0 50.0
ITEM: ATOMS id mol type x y z
0 0 0 27.13339468501594 23.897772510355814 32.3882809492474
1 0 1 26.957246214599483 23.222586191309894 33.05677300117382
2 0 0 26.720426402984383 23.810371600899494 33.80367695021175
3 1 0 40.97755321855101 45.338097662192396 20.546069154189567
4 1 1 27.824179075733728 43.10561274747941 1.755169237239071
5 1 0 26.282733239568074 42.632113496441384 7.152233264122829
6 2 0 38.97654962432689 25.15133017329294 37.52000909621923
7 2 1 38.23101681637388 24.511729220610842 37.537242898331876
8 2 0 37.5058472212036 24.705757769845853 36.87142048908747
9 3 0 14.46038867573541 33.69378960182588 22.472147432400888
10 3 1 14.424416909184739 34.486050755052084 23.057530441355404
11 3 0 14.804494123648563 33.975629719803564 23.80671483739676
12 4 0 33.81535946254339 18.459918840646164 24.61968132840527
13 4 1 33.9443340499922 17.876587644402715 23.836421607168607
14 4 0 34.024220925362386 16.956175860253257 24.15530899653503
15 5 0 16.561416908382018 5.33747192550307 38.46748276900826
16 5 1 16.135134524406183 5.248324208468804 39.37930300044063
17 5 0 16.039776028323136 6.198075172224372 38.96556185021443
18 6 0 44.34217280882521 39.70919618427442 8.275287586094825
19 6 1 44.69310731974332 39.58447241049763 9.206994439342417
20 6 0 43.80417803337477 39.509482372502724 9.790474637455802
21 7 0 36.50435170298871 7.138468417075609 39.043586441950865
22 7 1 37.19965418940189 7.546039396139095 39.60621904697331
23 7 0 36.8101934633306 8.459478397106505 39.481202881773854
24 8 0 3.7288617011324434 15.632394283115868 10.468627277855326
25 8 1 3.7174255431442 15.176032676617659 9.547378372653466
26 8 0 4.347312548107519 14.424775531154832 9.501530560633498
27 9 0 10.714590509629279 18.21564565332339 14.0208517883121
28 9 1 9.998669539650116 18.811977466449665 13.665741067614627
29 9 0 9.898474150967132 19.054050385432593 14.625902065112074
30 10 0 32.33776055093154 16.277091951621745 10.658055049059566
31 10 1 33.433903921808096 16.42209144304387 10.294513480116107
32 10 0 33.854901235379366 17.350289941480142 10.074169330638613
33 11 0 33.37599734920778 46.16345888608696 13.18656054838039
34 11 1 34.333149278559304 46.33645942123883 13.36521288053104
35 11 0 34.49237477591975 45.6969516418029 14.086270622371835
36 12 0 40.710342200624076 37.87958491979734 11.078846773807433
37 12 1 41.70021631452382 37.93634378606676 11.145958419621008
38 12 0 41.90207529944418 37.44183121300048 11.984648230004066
39 13 0 35.40630928574997 26.78559315217318 45.862761923508614
40 13 1 35.65743269178534 25.888415583249735 46.1616376250538
41 13 0 35.5428734545495 25.339347607290733 45.36608999580692
42 14 0 12.603931755071281 29.045668433181532 23.037455419709094
43 14 1 13.356636400000273 29.195030675082894 22.44229372394021
44 14 0 13.483599621126839 28.237904905644914 22.40635947841367
45 15 0 31.44226759993049 23.670922202037698 41.85308638678851
46 15 1 31.567644996676503 23.05717661911958 42.727477366221336
47 15 0 30.778077577118502 22.702694397088546 43.2158691275004
48 16 0 43.92344679283873 35.97647724421959 44.29493897385173
49 16 1 43.54903388982835 36.107040537249844 45.196121701803335
50 16 0 42.66531431278799 36.30682572952434 44.78053020106616
51 17 0 44.28509214860541 22.569537192330962 25.40306134144243
52 17 1 44.52470249572538 23.268318735505577 24.754445343822518
53 17 0 43.6394545441138 23.68682722057439 24.55686232735049
54 18 0 35.201275313184624 7.441974557340193 26.109823839217693
55 18 1 34.70859366561213 6.629130560988022 25.82942368739254
56 18 0 35.329190479490904 6.170723780805996 25.218947885762212
57 19 0 37.09974139131681 12.2952113923718 15.197411250984809
58 19 1 38.032197832503066 12.428592484971901 15.52999338162909
59 19 0 38.46561871844469 13.216909927839952 15.115100695932789
60 20 0 12.77702345813758 43.76404986073915 31.013635251933245
61 20 1 13.524305367411586 44.312694988780706 31.340084846225576
62 20 0 14.339605737532837 43.741542221035125 31.675670976968874
63 21 0 10.168269989235188 43.470967607800375 33.30918484355428
64 21 1 10.460676759521444 43.78786552928208 34.18618915216147
65 21 0 11.059972052889439 43.01303518500327 34.081569245280896
66 22 0 5.4623553572907495 26.697831200894434 44.91955459127997
67 22 1 4.867626730354537 26.7254385565966 45.97743739819008
68 22 0 5.5783163488258065 26.24694017464796 45.14026229800438
69 23 0 45.61637157051109 11.955279999871246 34.425967540886774
70 23 1 46.076868271896124 11.176672057385503 34.04826813286249
71 23 0 45.28117529156602 10.59711545116609 34.024497762512325
72 24 0 37.785038672810856 30.62575520959691 41.28070673726388
73 24 1 38.44976043481798 31.339860154131376 41.31078227148609
74 24 0 38.09699652928255 31.749082593728584 40.484210487980896
75 25 0 46.14770902197796 35.440108415198345 11.648877977304585
76 25 1 45.349228825839106 35.873797608130786 11.994675955412157
77 25 0 44.47296658487415 35.54107579176435 11.651675367730427
78 26 0 22.971176514611216 14.13862101027292 27.832956355935064
79 26 1 23.594188969530364 13.74746896795936 28.489273237154887
80 26 0 24.48440964434263 13.4213297818485 28.211070281141232
81 27 0 25.514332371582025 11.453654556089061 10.247658949217309
82 27 1 25.840547419336602 10.522784536329985 10.248409429944756
83 27 0 25.21418953684651 10.099655855891704 10.92378736425984
84 28 0 9.004337988506808 28.010454017395844 29.77293739641361
85 28 1 8.438104950476447 27.498308798003787 29.145647252383498
86 28 0 9.153203681450632 27.074967796992123 28.596251052195978
87 29 0 30.979946333080626 34.78402473909773 16.941821398324567
88 29 1 31.611565441832674 35.15850141352042 16.27372248059564
89 29 0 31.97595350196973 34.25051205238113 16.152703643084514
90 30 0 48.17389865996204 15.201876249761934 43.99925047395105
91 30 1 48.06873134523476 14.882101898706697 44.925212754101686
92 30 0 47.92697453263102 15.831040806034249 45.08359440636144
93 31 0 28.613850009186912 3.9986339304184035 16.974638851515266
94 31 1 29.33313831221466 4.138065351641919 17.628591002150156
95 31 0 29.2573612927767 5.094230378229209 17.941023642583783
96 32 0 9.539654088540756 39.07287986186939 10.37417735307689
97 32 1 8.831172747409777 38.98140514103185 9.71644305232157
98 32 0 9.117027056111079 38.108804818841826 9.363044081804246
99 33 0 43.5203289360279 38.10805561123852 20.78172833769415
100 33 1 43.29594195391254 37.450586820995404 20.08348178839359
101 33 0 42.75534134057974 36.761504393874574 20.594223642440486
102 34 0 1.6900117300709643 34.2638447402275 10.995983085623095
103 34 1 1.0894290245132607 34.71466201418648 10.359649233135888
104 34 0 0.6219657879311132 33.91824186156886 10.689434518214783
105 35 0 37.400441562114146 30.688704172340493 20.64473827764274
106 35 1 38.184447604838695 30.544179157212607 20.08611302020361
107 35 0 37.706806890436134 29.779532814927734 19.681798899288257
108 36 0 36.45924244909319 45.4736138578222 45.77701379456233
109 36 1 36.86880059756697 46.37566669230868 45.79937675817729
110 36 0 36.53376141959599 46.390832417387024 44.84990398566236
111 37 0 14.526606006099954 19.099447801964807 29.778680903673152
112 37 1 14.06522905127203 19.48177960121798 28.99602558081931
113 37 0 14.21165608764029 19.19088631441798 28.06373812870119
114 38 0 6.696440238659184 25.396335618695577 18.094641615253312
115 38 1 6.298565459443651 26.105155435700386 17.51422434522282
116 38 0 6.733390817426624 26.99375637824413 17.614248875449498
117 39 0 23.45398861966244 32.25980692311389 16.170721347490794
118 39 1 24.344545353303065 32.60037852165873 16.368987233860512
119 39 0 24.216785751633015 32.38209662907168 17.32183431773054
120 40 0 21.925286777219256 43.07265195321816 24.48932029146724
121 40 1 22.87078643955648 42.846460383149086 24.362143046874156
122 40 0 23.236606606184363 42.16787948963751 24.99188038663516
123 41 0 31.76998589532213 26.80173985096787 14.446681317380364
124 41 1 31.08700875857898 26.149688123052762 14.741864624401348
125 41 0 30.784243367113387 26.73510985373642 15.490115831471888
126 42 0 23.46655320674219 46.21194216442199 30.71229193924562
127 42 1 23.74714687571102 47.02876279811818 30.254811111709458
128 42 0 24.640453613617684 47.189218336020076 30.614182918813253
129 43 0 4.738326094760363 21.26191052642754 15.295904315133622
130 43 1 5.368955495644316 20.524887046926413 15.138298077943839
131 43 0 6.042356758973645 20.243306761934342 15.843513215634632
132 44 0 9.697994108441625 21.248477143055922 42.83573607611318
133 44 1 9.496767431073861 21.40609672352773 43.80628164495106
134 44 0 9.295654750099759 22.357097990485027 43.990565526187574
135 45 0 29.473094013938507 4.227965955081915 2.396549836033531
136 45 1 29.96509522714258 4.077030707131838 1.5774270893477442
137 45 0 29.989563554294676 5.030927275545347 1.3432713130517315
138 46 0 4.576162659514607 8.751006800237747 28.62432925304487
139 46 1 4.758617205801688 8.869609903732954 29.597110431943328
140 46 0 5.665278607912029 9.39469318244194 29.847887443722502
141 47 0 43.5178523369521 7.205282860362117 38.74848521160275
142 47 1 44.179721475786636 6.418737158749487 38.609415283933316
143 47 0 43.455281673758535 5.9022223535519664 38.22415719114406
144 48 0 4.242303746378956 18.339642478462228 4.721962990787416
145 48 1 4.310671970777795 17.707632267889036 3.976107323671866
146 48 0 5.275037051778106 17.570695354172333 4.13471967157514
147 49 0 15.782407530260151 21.13183963357992 38.29254314292546
148 49 1 15.45828209536135 20.765484928265 39.161064419166856
149 49 0 16.13301675974705 21.27544703608196 39.676182398623155
150 50 0 8.488575348779753 46.70715202997431 12.849899625821346
151 50 1 8.142496064715475 45.91805074131972 13.295003938208474
152 50 0 8.896962009433638 45.46134022432391 13.79352800734131
153 51 0 20.157581933792613 34.80643004745114 12.504404800690779
154 51 1 19.363013050423643 35.36675552635296 12.3085487749859
155 51 0 18.570798211180577 34.81260694735479 12.453006884738066
156 52 0 46.65640184192587 30.162155935612603 41.34670291332391
157 52 1 46.84231215227691 30.920131924675598 41.946958750315034
158 52 0 46.90459700845964 31.74053994216023 41.43080642199313
159 53 0 7.63387947420715 16.841214747818206 9.758543495026249
160 53 1 6.9285462090004435 16.130359149581835 9.645700011883784
161 53 0 7.147749357107625 15.484768246435785 10.35275044892538
162 54 0 17.05099861793631 30.87835648443932 31.288862635659733
163 54 1 17.223065310853062 30.66068731876444 30.308642071850393
164 54 0 18.22438845732623 29.86551880178821 30.204004887827235
165 55 0 2.344058689198726 38.844257897236275 22.324938480020567
166 55 1 2.034059870213556 39.567047251171815 22.943820543439656
167 55 0 2.743197318920516 39.03696060951267 23.404759908828073
168 56 0 6.213201564065547 15.135587906281922 23.664056545822927
169 56 1 5.87908321193131 14.252595830325335 23.36411768367586
170 56 0 5.600980270974036 13.907278208251158 24.222930744168508
171 57 0 43.3441587312259 26.9838664063725 37.30202081169029
172 57 1 44.41223371295437 27.16856589665944 37.1699370591444
173 57 0 43.55894734420647 26.839291748795073 36.58295808068122
174 58 0 22.616945124390003 4.852767371144904 35.19596235707753
175 58 1 22.730661511987506 3.73854799844162 35.29879297949725
176 58 0 22.172191931292414 4.663322301063944 35.517565321981444
177 59 0 12.040011010375505 7.834109723359552 26.86711723970698
178 59 1 12.046224127320961 8.06072370356412 27.919845630459292
179 59 0 12.632596667746814 8.705216338755054 28.460951284973987
180 60 0 26.903698517675927 43.89864512060365 5.031240293459566
181 60 1 34.30807630377642 18.572676412078 12.129303320771907
182 60 0 26.51978813039577 41.356631888613585 5.59469040422587
183 61 0 21.4240114955411 27.247333766791588 31.51225651962634
184 61 1 21.330641987688445 26.691701695423188 32.32516746056209
185 61 0 20.584021144960136 26.06998900665669 32.16856326247459
186 62 0 10.007631446778147 48.40999915546016 41.83521709292377
187 62 1 9.08920694662675 48.10995288616862 41.94630466315518
188 62 0 9.298450615949337 47.390275463708555 41.322725698279505
189 63 0 44.812798679974314 6.941586625213657 12.10371083521272
190 63 1 44.545638034447585 6.486329057611583 11.257321636595783
191 63 0 43.89922096583637 7.2010246263218685 11.010619163003586
192 64 0 42.782761649248755 10.192546407387153 30.819357965956115
193 64 1 42.95763056592356 9.535865372634222 31.547142688543833
194 64 0 42.113522993959506 9.142477826712287 31.864191037078072
195 65 0 6.978023465442571 39.87374595105771 33.436449950503416
196 65 1 7.591218624251082 40.33842405789852 34.05350561190877
197 65 0 8.472901651021495 39.72993207950368 33.75668214315947
198 66 0 23.761612035730305 21.218397751972283 45.05457937463215
199 66 1 23.245019433152393 20.713419220652742 45.80697908109664
200 66 0 22.38735607738523 20.306242074371955 45.52933285831679
201 67 0 5.479779136098082 6.52590440079193 45.07682950347812
202 67 1 5.580708347240595 5.834033907276568 45.83839036493458
203 67 0 6.215331133788622 5.960028263588221 45.01770200993492
204 68 0 20.932957647276954 29.518338930910165 27.97787551066863
205 68 1 20.639095325926657 30.458052352728544 27.801504380724758
206 68 0 19.999416702340994 30.90698521994378 28.410973179369908
207 69 0 45.72365927468814 41.83330226901713 37.22190042932044
208 69 1 45.310068516108075 42.56812285970547 36.6964572541809
209 69 0 44.123177803598516 42.5787176973242 36.5865239765427
210 70 0 22.976712552486557 35.727838316065366 45.724985598770736
211 70 1 23.88379072874841 35.73756375058003 46.08845773916989
212 70 0 23.860415373471263 34.80059098149394 45.790098268375495
213 71 0 46.62307793219687 22.60738565120727 21.77502201959138
214 71 1 46.47419772760002 22.031382673546418 20.992499665284203
215 71 0 45.48760508752997 22.126671393389724 21.00981283706411
216 72 0 30.988924277597874 11.504655937073247 10.95992255052277
217 72 1 30.56451525505892 11.201312352945822 10.143282321322193
218 72 0 31.025853424886787 10.369571262418841 10.32698572175124
219 73 0 19.64440522486665 40.470673321161414 9.95356301953343
220 73 1 19.930589988989087 40.54464886838244 9.005438738390561
221 73 0 19.82732977099757 39.586518720787446 8.88904172063773
222 74 0 35.32805140079198 15.093253179691347 3.9853473291667414
223 74 1 36.16085775899918 13.775513754853744 3.5728219314060494
224 74 0 35.1779318794109 14.952552317135378 4.018444042941997
225 75 0 8.328106279007397 20.73596864169546 21.608748992765733
226 75 1 7.564998512131888 20.112220332814935 21.5206505024259
227 75 0 7.736796648720814 19.311735015352852 22.069334838430755
228 76 0 9.322451511411064 14.53812887447463 18.736226493968623
229 76 1 9.044951061030442 13.486925615323747 18.857843286753603
230 76 0 9.993946515124724 13.96829798515258 18.58427965295273
231 77 0 11.73543969234889 4.243206803410891 24.605864044086495
232 77 1 11.891317451779555 3.285247524514685 24.686224950716216
233 77 0 12.807963374974303 3.359014724488295 24.33264791569068
234 78 0 5.694863420610845 12.150189312521542 5.29050970589677
235 78 1 5.964270066858108 12.845433664032077 4.654830792353835
236 78 0 5.801640692497631 13.802116875720813 4.874032323260119
237 79 0 10.180407021190168 12.823437698967414 22.395686519214212
238 79 1 9.792393149389314 11.955356110462018 22.648261963496054
239 79 0 10.323877521183713 11.806907339253494 23.453016493017117
240 80 0 43.78223561144861 22.999823674714055 40.31305812298657
241 80 1 43.87783595921747 22.813976823516292 41.28754840597271
242 80 0 43.69827873780049 23.732592328734803 41.63576543881929
243 81 0 25.770678979061056 11.390514505078372 34.526985995312494
244 81 1 25.785862140236766 10.44543596537078 35.07868284889345
245 81 0 26.120696683098497 9.81136562061059 34.43689693930183
246 82 0 43.45689396434062 2.604379917393684 10.034961738020659
247 82 1 44.205435170048304 3.129336227227719 10.423561420927308
248 82 0 43.757686121492895 4.136466434927604 10.628654826559057
249 83 0 20.999485729073903 19.43174360522208 5.5995801601897535
250 83 1 20.957059455560092 19.011544145941613 4.415203234421253
251 83 0 20.025990989546585 18.63015139743295 4.740328934591764
252 84 0 16.530278916188795 38.43200224075784 23.060641388038324
253 84 1 16.584824220398126 39.25550445972868 23.61584705111415
254 84 0 16.71152127508446 38.81248728629879 24.482329231549336
255 85 0 45.923130514635 39.007060887426576 30.99933067078799
256 85 1 45.543040622105444 38.265660076395164 31.525519279611068
257 85 0 44.89373921931539 37.6852724128913 31.02343363172692
258 86 0 25.569299446704342 36.101381361424735 40.62849638383296
259 86 1 24.913332190823176 36.645743279820834 41.14207873086077
260 86 0 24.076411434378507 36.144180885301665 41.28004394177484
261 87 0 16.967889358014066 5.097918417186749 19.62513683964526
262 87 1 16.066851877253885 5.17015351647468 20.02887750044589
263 87 0 15.601872961592912 6.009855725478049 19.789510851084824
264 88 0 43.57250255380348 18.767534819109148 14.178072885921832
265 88 1 43.868177840263755 19.159861409009082 13.331025633092946
266 88 0 43.037544314371914 19.377517014169232 12.838279413860848
267 89 0 39.68576854596674 34.10395470215547 44.91144526395719
268 89 1 39.40713463476075 34.75631687566188 45.616822105695654
269 89 0 38.55053378949727 35.217985466076776 45.434577407586374
270 90 0 39.82761701259074 9.044543960526937 14.53783770708548
271 90 1 39.5445573018825 8.69446202517173 12.980812881969152
272 90 0 38.582479143640946 8.486531335690145 12.877744540394511
273 91 0 17.08459189304376 8.081004390550282 10.15292001205874
274 91 1 16.889639848359867 7.773335997217488 11.087189272713859
275 91 0 16.83048889151495 8.62959166327333 11.832456060835362
276 92 0 10.528864205943355 32.20433577207374 32.32224913980329
277 92 1 9.757653438753216 32.86069169556762 32.6202607693355
278 92 0 9.275496440577976 32.665091863370236 33.507559101748924
279 93 0 20.133184225885202 9.642072877680427 10.246404267809591
280 93 1 19.99636389528399 9.532454624835875 9.302147073750278
281 93 0 18.844174784100982 10.110084966013652 9.412698336566974
282 94 0 25.35537692193089 42.047503302748225 35.713571047233444
283 94 1 24.966387838083037 42.69413313703473 36.358212050074734
284 94 0 24.079172328427216 42.44548150425276 36.725452094584554
285 95 0 11.12605570432077 16.480617382125583 43.56281024072358
286 95 1 10.710089011659203 17.25343799024975 43.98759495060628
287 95 0 11.459417242254048 17.65690666967843 43.48554444055198
288 96 0 15.932155426280055 42.4647237874349 23.039841673337712
289 96 1 15.393911371913205 41.95603882391266 23.690450093721772
290 96 0 15.069690583550834 41.08015106838119 23.275287171497286
291 97 0 30.760738080258097 3.109625321279693 6.728533208233987
292 97 1 31.408514032333652 3.0270409613686966 5.983901366216035
293 97 0 31.708561369717685 3.92977491077118 6.275805083799154
294 98 0 18.245874651910487 38.8930929066132 36.30980734203106
295 98 1 17.2789062476064 38.8076685435745 36.18250285888414
296 98 0 16.877581888121682 39.107078105730594 35.336376340107876
297 99 0 30.381627814116484 23.849906529929022 38.80946331463119
298 99 1 31.322914945726012 23.90761218653094 39.01816861057973
299 99 0 31.718763773996297 24.140738307874237 38.14338947305192
300 100 0 6.085639142003935 40.59451035717263 41.59532713823156
301 100 1 5.200407741787757 40.87493203178287 41.95887468199726
302 100 0 4.762154989073103 40.3611794380985 41.24148328392907
303 101 0 39.69905482103095 11.228251394440143 4.055803241764644
304 101 1 40.461986350207695 10.579214198258653 4.13067909115372
305 101 0 40.862426845317636 10.722015928590139 5.042847934166361
306 102 0 27.194796326220384 24.157093792663957 43.39928227653114
307 102 1 26.60940019813633 24.72333597271949 43.94336261403125
308 102 0 26.64964013846097 25.658538218744344 43.64796766766923
309 103 0 29.60859478805578 34.66689476750841 15.40991324106226
310 103 1 29.34560639347337 35.727145407296696 15.662307648097219
311 103 0 29.569813248676322 34.67279234871463 16.050596316442956
312 104 0 38.012739322401025 11.612775554220574 9.899533424776518
313 104 1 38.292341875015666 12.588621621480591 9.546712865409045
314 104 0 37.61354028178026 12.357256246647202 10.305485006667483
315 105 0 34.98494548711392 38.72682969867034 11.623076648630299
316 105 1 35.94329694211904 38.728813712221296 11.395374080195728
317 105 0 36.365153190663904 37.831784899439135 11.475506760043606
318 106 0 23.9591164271864 39.70054263365147 41.18506412808807
319 106 1 24.347538444219975 40.60063513009185 41.235939981665105
320 106 0 24.15310007211244 40.73777098978172 40.27931933272286
321 107 0 26.403482171570595 34.14790599788953 6.328613814948711
322 107 1 27.11063038982106 34.14147297125787 5.648874696637845
323 107 0 27.558939236866163 35.00594046893152 5.859535938191858
324 108 0 24.12628814285117 11.129274449071827 15.196543328387436
325 108 1 23.793140717736645 10.250520176798664 14.840488981976524
326 108 0 23.010587487138856 10.898724275084632 14.940805438256799
327 109 0 44.801385442817505 25.698940101665297 41.271457262874755
328 109 1 44.65676273195426 24.823963872146805 41.74676890965434
329 109 0 43.932292724940226 24.472615466165497 41.23359060113057
330 110 0 22.007858927721905 35.108002034580075 4.022575594001936
331 110 1 22.736606895811974 35.70253334029831 3.7018243571527947
332 110 0 22.956728290120214 36.485805296071426 4.251169284887777
