ITEM: TIMESTEP
121
ITEM: NUMBER OF ATOMS
66
ITEM: BOX BOUNDS pp pp pp
0 50.0
0 50.0
0 50.0
ITEM: ATOMS id mol type x y z
0 0 0 27.153873971361612 23.804241786253463 32.33464740235261
1 0 1 26.959276286333317 23.234594187383436 33.0552775925448
2 0 0 26.720372897058592 23.71906785693991 33.81999430575569
3 1 0 26.452388931836012 43.90482760030284 7.643480109674726
4 1 1 26.57845978753903 43.40926736544631 6.875099090598125
5 1 0 26.252468286721097 42.619091902279465 7.255660449524404
6 2 0 38.21246184487454 25.328706133615086 38.36237671773684
7 2 1 38.0358294388548 24.649355174512674 37.80307237822324
8 2 0 37.38900938854019 24.96549239166037 37.27939909629906
9 3 0 17.099745460589354 34.48602248273356 24.58284434451904
10 3 1 16.211392100576997 34.79862385242667 24.134125064433206
11 3 0 16.025223943251987 33.81920641515327 24.061413240097085
12 4 0 33.82378031649761 18.41980166312383 24.572017800758175
13 4 1 33.94402743864513 17.878467117663284 23.842649592693448
14 4 0 34.02398785800114 16.997233148767794 24.09519622545486
15 5 0 17.57747401376741 18.874374619462117 25.58333765861748
16 5 1 17.072694080860305 19.482530426470863 26.028843365466624
17 5 0 17.061109186059355 20.307015153698025 25.6625009076069
18 6 0 12.734790089076323 21.39736232076705 15.326804260233514
19 6 1 12.2886172331348 21.529098207809504 14.437395002106516
20 6 0 11.672775127866172 20.76895288552611 14.683589217670587
21 7 0 36.53112057654389 7.186820478668711 39.07075450593746
22 7 1 37.199687256552714 7.548258095653542 39.60651396311604
23 7 0 36.78462294724907 8.375620115872861 39.44882188609772
24 8 0 5.921152171164373 15.026749461622597 8.67858016242985
25 8 1 5.242640490297458 14.606631654321395 8.251400418490705
26 8 0 5.190561203195266 13.68874379524732 8.317353863989391
27 9 0 26.538356417978186 12.695622979573969 27.92421195535697
28 9 1 26.630540110402592 13.592470272239366 27.723053043461128
29 9 0 26.05640420690896 14.125275667936751 28.196749049221726
30 10 0 33.77179477678034 15.392624502390834 10.617000987831979
31 10 1 34.392859854247725 14.756374293606916 10.767950191852687
32 10 0 34.18558142340839 14.45277698326516 11.58938677259876
33 11 0 33.43997621293247 46.232987943247025 13.138656260802513
34 11 1 34.32205615359823 46.327387719702095 13.370674708790684
35 11 0 34.61069518624739 45.77503914561628 14.049728104302007
36 12 0 25.000918023055757 48.113625655042576 37.043670786332854
37 12 1 25.35016690179832 47.69370427802611 37.80472473768033
38 12 0 25.159525259651772 46.89163198627892 37.31600460327571
39 13 0 35.43119564021139 26.7734015768874 45.939905749177214
40 13 1 35.6614909044638 25.900005520219402 46.156741206786
41 13 0 35.57913901182844 25.298545540243943 45.45043834712845
42 14 0 12.604562454844396 28.88865002919238 23.046886220490975
43 14 1 13.359460027902568 29.20344707633578 22.432120033401425
44 14 0 13.359886041130583 28.190531400819832 22.506126727380625
45 15 0 31.772471083214793 22.42970658602864 43.3643290376235
46 15 1 31.681730295158538 21.953199634262756 44.16695319116958
47 15 0 30.783018191049894 21.82834255378998 44.40411146002221
48 16 0 43.90957253145188 37.124374406183044 44.48649674102451
49 16 1 43.613065408535014 36.74176152819529 45.324719373253544
50 16 0 42.818609009341074 36.79472570788895 44.753038841496256
51 17 0 24.010625435587382 39.1094642008366 43.01625028657002
52 17 1 23.61726080593706 39.914194090100416 42.95744304947176
53 17 0 23.047665373473137 40.031112835223944 42.26825725516287
54 18 0 39.94133959014591 4.412304340146502 18.737643943902253
55 18 1 40.52763828789937 3.7860239938911424 18.601880259489473
56 18 0 40.89833622705034 3.4307902346349515 19.34958458921941
57 19 0 37.21315638146944 12.382485235059914 15.184001063766475
58 19 1 38.031535109796756 12.425305153094767 15.533453405553995
59 19 0 38.433315969430254 13.135151494336794 15.164471442019558
60 20 0 11.890842797481742 44.344329676654546 30.599629196990954
61 20 1 12.546700016921802 44.96228760318481 30.857310827776534
62 20 0 13.317686031937109 44.57318117534025 31.214277345759847
63 21 0 9.820330852508931 44.401372750660364 34.21550522214064
64 21 1 10.485486748568958 43.63146814493238 34.16150263988531
65 21 0 10.884726274876266 43.8838832387824 35.08745866263468
