ITEM: TIMESTEP
122
ITEM: NUMBER OF ATOMS
333
ITEM: BOX BOUNDS pp pp pp
0 50.0
0 50.0
0 50.0
ITEM: ATOMS id mol type x y z
0 0 0 27.133927506156873 23.89563308039336 32.38668375388892
1 0 1 26.957221792657 23.222890021644325 33.056825895605755
2 0 0 26.720287988253826 23.80764607871804 33.80442531565179
3 1 0 40.244197152221204 44.98735184450667 19.529723619985255
4 1 1 27.863895720330863 43.11081585963516 1.83336814679574
5 1 0 26.3547345228511 42.65416093076809 6.90252283875668
6 2 0 38.97510976534003 25.151142159947668 37.51916650290665
7 2 1 38.23096350714549 24.511713087993684 37.53721899915537
8 2 0 37.50813352738485 24.706200516985994 36.87263762172562
9 3 0 14.458618273828868 33.69728227305411 22.469640279430358
10 3 1 14.424569248326543 34.48556499274046 23.057584326715926
11 3 0 14.803819341581693 33.97990533528656 23.808357096138494
12 4 0 33.81551997846425 18.459408284041277 24.61839669890806
13 4 1 33.944326136652116 17.87657312150116 23.83654193569639
14 4 0 34.02418684243957 16.95691902652688 24.154668908113873
15 5 0 16.563081771944642 5.327652712178304 38.470398350791214
16 5 1 16.13529993713273 5.249013853384528 39.37853175870771
17 5 0 16.035462588510573 6.196860159725634 38.97498763876054
18 6 0 44.34442005168595 39.70896802946172 8.276963530608912
19 6 1 44.6926176041467 39.58447435311246 9.207017393361562
20 6 0 43.80982735483673 39.509753444595674 9.788360880002491
21 7 0 36.50699583638155 7.135090963401675 39.044905549049716
22 7 1 37.19924696084605 7.546277164489826 39.60596914958416
23 7 0 36.81406034852922 8.459051807331454 39.483883477505266
24 8 0 3.7292079759361623 15.630358633452062 10.465436206447484
25 8 1 3.717444651235674 15.176100410267939 9.547539050444806
26 8 0 4.346739034953473 14.425750900434268 9.502171801573784
27 9 0 10.714357899306313 18.214819833256005 14.014242639225648
28 9 1 9.998967516759556 18.81180597212554 13.666364295152514
29 9 0 9.893975333738068 19.05762066336164 14.622539000340263
30 10 0 32.34810492375765 16.281004784357517 10.654385219205254
31 10 1 33.43356627311838 16.422068870078544 10.294688357892253
32 10 0 33.85033240058458 17.347601301755592 10.075864044649302
33 11 0 33.37752459501963 46.16529557542736 13.185231191740714
34 11 1 34.33292561074072 46.336266240308504 13.365329378323421
35 11 0 34.494425735580165 45.698208734397475 14.08573655681854
36 12 0 40.71220562934528 37.88045787885048 11.077724099759294
37 12 1 41.70002757668903 37.936214743158224 11.146140448914137
38 12 0 41.903121392220065 37.44301654621098 11.982887088629324
39 13 0 35.406818518423876 26.78520787919699 45.86435428590356
40 13 1 35.657370037007986 25.888487605986395 46.161457692845985
41 13 0 35.543373490038555 25.33858410589198 45.36738778469505
42 14 0 12.603564653439337 29.050956563752468 23.037393790429224
43 14 1 13.356402225295666 29.194638910650443 22.442500971323845
44 14 0 13.487709564835301 28.23886457148388 22.403100227854665
45 15 0 31.4407329217297 23.667079414800835 41.858527569671516
46 15 1 31.567752660537437 23.057297899039245 42.72730837459888
47 15 0 30.777908262901118 22.7045659181199 43.213206826008594
48 16 0 43.92740951768254 35.97563921640824 44.298147523401425
49 16 1 43.548799361621825 36.10707797944688 45.195592189638106
50 16 0 42.66516222302591 36.30708983756169 44.78579151868624
51 17 0 44.28708299107039 22.569928823961323 25.402353955723807
52 17 1 44.52441187467927 23.268282893052874 24.754534063182067
53 17 0 43.642086842272604 23.687025823996365 24.55620291530992
54 18 0 35.19944704666502 7.440952067150806 26.11007957912419
55 18 1 34.70881282412056 6.6292165876153675 25.829369318429986
56 18 0 35.32751222967616 6.170369296536494 25.21956239304394
57 19 0 37.10177981611322 12.295985227610144 15.197761371055918
58 19 1 38.032147176081246 12.42862167618486 15.529950854186225
59 19 0 38.46437867888084 13.215699943193904 15.115469030775762
60 20 0 12.77842043341292 43.763989963953584 31.01422366028205
61 20 1 13.52448879699501 44.312570399739016 31.340156161016328
62 20 0 14.335326909028096 43.74360896587636 31.673892480911807
63 21 0 10.163723928760266 43.47662250333458 33.30968180029667
64 21 1 10.460830614430233 43.78736113860109 34.18575610781899
65 21 0 11.062038242748354 43.015484898001525 34.08805019008606
66 22 0 5.450517607912715 26.710631292980082 44.92887018792065
67 22 1 4.868755988298736 26.725025583994753 45.97577422320619
68 22 0 5.57208335005871 26.240750498303434 45.15755879889956
69 23 0 45.619805977689495 11.95618049471109 34.425508068053915
70 23 1 46.07647324715553 11.176725471978862 34.048378229257885
71 23 0 45.284110516704246 10.595388688363451 34.02323060346515
72 24 0 37.7872642901596 30.624678924531402 41.28437328447202
73 24 1 38.44940392870727 31.339775037131865 41.31045899514881
74 24 0 38.10046826335475 31.751514923782082 40.4857017091792
75 25 0 46.14615802636955 35.43929998009643 11.648075715416942
76 25 1 45.3491642595003 35.87387275544604 11.994745465101646
77 25 0 44.475617297864204 35.54061228622446 11.651403143633493
78 26 0 22.973917566554718 14.137659563212281 27.831876377924754
79 26 1 23.594137193672474 13.747452155917049 28.489476379731588
80 26 0 24.482496415233527 13.422561082502469 28.208897554536403
81 27 0 25.516233507224385 11.45281864954901 10.246257632781832
82 27 1 25.840257976388198 10.522867558474966 10.248633758454469
83 27 0 25.216903677854592 10.099161534692445 10.921572518060627
84 28 0 9.001424205535448 28.01053463335112 29.773114702125675
85 28 1 8.438481936587149 27.498321225187727 29.145653315698855
86 28 0 9.150081652827364 27.074682176582368 28.595974534108066
87 29 0 30.979091620076556 34.789315913201534 16.94135517164432
88 29 1 31.61012037442039 35.158306414179194 16.273602275503144
89 29 0 31.978771012302182 34.2536047384111 16.149393673921168
90 30 0 48.17486598093734 15.195043919314038 43.99845170395673
91 30 1 48.06872171827585 14.88264791033855 44.92484352143863
92 30 0 47.92616196934576 15.829136260426994 45.0903017732563
93 31 0 28.614919243108645 3.9981380016803483 16.9753347962528
94 31 1 29.333026323679768 4.1382600643309155 17.628574282755423
95 31 0 29.25808433874417 5.091608777819185 17.940596293437817
96 32 0 9.53803252559658 39.075669624292395 10.37471237295809
97 32 1 8.831448071891247 38.98115837975213 9.716506528081785
98 32 0 9.114244015585298 38.109961798618954 9.361491976160668
99 33 0 43.520853309972054 38.108078434574736 20.779650988054552
100 33 1 43.295821980378996 37.45051241736882 20.083787773323785
101 33 0 42.75673759205021 36.76267339580142 20.591407950347225
102 34 0 1.6954087995095422 34.270809969033884 10.993779098752064
103 34 1 1.089504554564418 34.714042289610866 10.3601341630394
104 34 0 0.6153589727118131 33.92119177106577 10.683879440455842
105 35 0 37.40345180056061 30.69282863078563 20.646679879701615
106 35 1 38.183954961774965 30.54390689846029 20.08614712912681
107 35 0 37.71167928574269 29.779763123301066 19.67931272902192
108 36 0 36.46178344621621 45.474148792687245 45.78341113768912
109 36 1 36.86843856847546 46.37526179605384 45.798871772350616
110 36 0 36.53701280163808 46.39677636384794 44.85158661598409
111 37 0 14.527782458741001 19.09771374591121 29.775390245460372
112 37 1 14.065017404884548 19.482013163657612 28.996071705187155
113 37 0 14.213866486712794 19.18888280525881 28.066291282014976
114 38 0 6.69624769894431 25.398500699825085 18.093775571539616
115 38 1 6.298589035744731 26.1051492218169 17.514247632593705
116 38 0 6.733205711526301 26.99170400175146 17.614744121529302
117 39 0 23.45527597257456 32.26113021779309 16.166194383506607
118 39 1 24.344183205379885 32.6001727894749 16.36929456892329
119 39 0 24.22128289860648 32.384055892982715 17.321448438277894
120 40 0 21.926261165482316 43.0714536109941 24.49029809138148
121 40 1 22.87084971544412 42.846459346009816 24.362118382613996
122 40 0 23.234626023187815 42.16909514359756 24.99129464320732
123 41 0 31.769994924679576 26.798187452797542 14.444163284638307
124 41 1 31.087138779102045 26.15015575874096 14.742050947762264
125 41 0 30.782153576596706 26.7311791531147 15.48965254989731
126 42 0 23.465455437418083 46.212744565537804 30.71110648536466
127 42 1 23.747255898517775 47.02864160190622 30.254959955413245
128 42 0 24.639807812597308 47.19035969307855 30.612987434703598
129 43 0 4.740241765845177 21.261389469467854 15.298395041333258
130 43 1 5.369019094089664 20.524745078771907 15.13816799962589
131 43 0 6.039393629465751 20.24610489275853 15.843105909911477
132 44 0 9.697438303274295 21.249393022095973 42.83793961117966
133 44 1 9.496776100082327 21.406130608768997 43.80619677457198
134 44 0 9.296053771812485 22.355697638552762 43.98971812294471
135 45 0 29.473301549850007 4.223980484311178 2.3969907227793046
136 45 1 29.964960136648706 4.07740599546895 1.5775812347954705
137 45 0 29.99150428218888 5.028916719428488 1.3403243234617126
138 46 0 4.57786037046857 8.752006137034785 28.625947588986705
139 46 1 4.758836231797474 8.869737045406833 29.597186148388122
140 46 0 5.660072027579455 9.391658457373456 29.84506084723401
141 47 0 43.523906655898664 7.204521195071355 38.749723447246254
142 47 1 44.17911922253055 6.419017086513265 38.609372191661556
143 47 0 43.45886650490476 5.898499383124054 38.22361363072528
144 48 0 4.238193449251289 18.339455947639394 4.7203490253972475
145 48 1 4.311007170977263 17.70780270723168 3.9764243607961482
146 48 0 5.2737728654900105 17.56818725399755 4.131240423752766
147 49 0 15.77893668458419 21.128951590288317 38.292327641738716
148 49 1 15.458659921300265 20.76581819917928 39.160912839881064
149 49 0 16.130445802661516 21.273003500367984 39.67882013239236
150 50 0 8.488312276039835 46.706771828638416 12.850089809204109
151 50 1 8.142651619495634 45.917996464960765 13.295079971809914
152 50 0 8.894735831742135 45.462591347724455 13.792122179216353
153 51 0 20.156493281982883 34.8077763937854 12.503959744554994
154 51 1 19.363052377187003 35.3666143050312 12.308593192883892
155 51 0 18.57125236381571 34.81351337649949 12.452744328156005
156 52 0 46.65665074889244 30.16321700105496 41.34744616326091
157 52 1 46.842300426404336 30.92009877285936 41.94689763581408
158 52 0 46.904546725267856 31.74001785264729 41.43104422689839
159 53 0 7.631471248167557 16.840126579542318 9.757118645029497
160 53 1 6.92878229769817 16.130432182313857 9.645869622731077
161 53 0 7.146290396876461 15.484657759808798 10.35145938841688
162 54 0 17.05165176721167 30.87758394499314 31.285782991076893
163 54 1 17.223900140346938 30.660037287426228 30.308739583856703
164 54 0 18.21031271796744 29.876700318771963 30.20556724861516
165 55 0 2.3375684913282804 38.8487325213884 22.320090280627507
166 55 1 2.0346085069732873 39.56636874070737 22.943728814917634
167 55 0 2.7409086942966 39.04334230478191 23.411075690022532
168 56 0 6.213284015789184 15.134724559745704 23.661049433789756
169 56 1 5.879121267826311 14.252792192619644 23.364400291618512
170 56 0 5.600234119821034 13.90501954552835 24.221439837759167
171 57 0 43.352371430645064 26.98875749372792 37.314229749885065
172 57 1 44.41086681866888 27.168204650004423 37.16962359961169
173 57 0 43.57260926468003 26.840199679971246 36.575723916305265
174 58 0 22.6303071570999 4.8441325715899515 35.188580485954624
175 58 1 22.730223128080063 3.740017891185137 35.298846225674275
176 58 0 22.165844568375704 4.648434756750056 35.524094389020405
177 59 0 12.04328828874936 7.838281415417284 26.872853676007036
178 59 1 12.046005714714502 8.06052837056513 27.919856764613446
179 59 0 12.632818932790055 8.70417867046389 28.455049685580292
180 60 0 27.303622996052024 42.53117844313026 5.414646332939341
181 60 1 34.258477187850936 18.750028079583867 12.084240172151349
182 60 0 26.93896024235547 40.13108337959623 5.946346389533436
183 61 0 21.42428213423725 27.24671888110856 31.51377605687033
184 61 1 21.33055947052666 26.691701946813307 32.325029065606934
185 61 0 20.585075385338182 26.0705872051795 32.16927123184404
186 62 0 10.0060795554759 48.41398079544205 41.83881253371696
187 62 1 9.089637081415397 48.1097868684837 41.94601989216765
188 62 0 9.29312090401718 47.38895266867971 41.323687995335035
189 63 0 44.81470262140579 6.937782977708686 12.102751278804357
190 63 1 44.545499681668616 6.486772038884619 11.257554716221838
191 63 0 43.8995507042359 7.197741243906746 11.007848030887423
192 64 0 42.782883431001025 10.191225016235082 30.820792850962217
193 64 1 42.957559089092776 9.53590679004737 31.54708548050591
194 64 0 42.11449786440085 9.143112760250999 31.863630193120915
195 65 0 6.976055229929415 39.87660876361574 33.43850823810762
196 65 1 7.591651280999037 40.337858853812456 34.053115676938674
197 65 0 8.467908561600442 39.73607052361497 33.76086131875315
198 66 0 23.758424737096895 21.21588656149696 45.05708022814005
199 66 1 23.24512024965235 20.713504980372306 45.80687649598579
200 66 0 22.388918318165526 20.30736721214132 45.52848069604023
201 67 0 5.4697837941226215 6.527532306067416 45.08522883374535
202 67 1 5.581071900053173 5.834538208942121 45.83737871569166
203 67 0 6.219509394556857 5.950331341592032 45.02548924883088
204 68 0 20.930817579725524 29.520338319548973 27.97960526385502
205 68 1 20.639170945441357 30.458111403824738 27.801364460227546
206 68 0 20.000408048534617 30.90404668960147 28.41142780946178
207 69 0 45.72103371709604 41.83386646418641 37.22129707073202
208 69 1 45.309432081640566 42.56816974595111 36.696371277374
209 69 0 44.135986363323376 42.57740768695646 36.588507110085175
210 70 0 22.976796571998314 35.7344500025127 45.727059555721134
211 70 1 23.88338709931103 35.73712895018934 46.08816540760462
212 70 0 23.86678321618988 34.80092757759355 45.79273335749654
213 71 0 46.62647436787907 22.606143243568717 21.773744171764957
214 71 1 46.47389769950475 22.03160243366938 20.992756834857214
215 71 0 45.48903737735294 22.12438117791678 21.006924707337422
216 72 0 30.985972765108276 11.510176352312772 10.95886792252675
217 72 1 30.564869959530913 11.201102316636716 10.143681174047325
218 72 0 31.023160053243473 10.367405642632034 10.321656892662213
219 73 0 19.64541776922014 40.47527511877845 9.952344588670545
220 73 1 19.930437522229145 40.54430352566974 9.005792583926837
221 73 0 19.828755967680227 39.58745329616884 8.884594936543927
222 74 0 35.35445853335354 15.06879865344767 3.974157008897385
223 74 1 36.158273904267325 13.779085922832346 3.574044216033233
224 74 0 35.192848177368894 14.919866335001885 4.010064025308832
225 75 0 8.326842405384285 20.735013480117654 21.60855942576001
226 75 1 7.565096857546937 20.11221280184852 21.520711950825497
227 75 0 7.736489431708079 19.312819981365575 22.068548635638233
228 76 0 9.309183972892846 14.534268785384763 18.739919009710906
229 76 1 9.045870543066181 13.48805822409563 18.857542965745502
230 76 0 9.992499960482462 13.954053688825274 18.585313291856068
231 77 0 11.731677575065104 4.241996529080236 24.60744618385768
232 77 1 11.89160090612725 3.285581735173175 24.686070103821514
233 77 0 12.80718567619472 3.3548611860584696 24.33354008918101
234 78 0 5.694292473629536 12.152694856550024 5.291381079090612
235 78 1 5.964349131410211 12.845429731499662 4.654669205832668
236 78 0 5.800958550206219 13.799636211402413 4.8757286652223435
237 79 0 10.178155088892614 12.822419918857067 22.393693161587088
238 79 1 9.792652091749835 11.955569793926617 22.648404621187886
239 79 0 10.32203957815407 11.804458050495054 23.452781780016874
240 80 0 43.78291278958759 22.99700769804069 40.314495467428266
241 80 1 43.87933980620398 22.818602529314827 41.2882884772141
242 80 0 43.709443829867645 23.741738029941065 41.63844943365197
243 81 0 25.77038156396826 11.384590179765729 34.53166828633183
244 81 1 25.785888853725297 10.445869783240678 35.07832526157784
245 81 0 26.120569035991874 9.810350748504785 34.43793831493259
246 82 0 43.459020253700125 2.604338436840679 10.035558139788883
247 82 1 44.205024177156545 3.129822855581968 10.423604584909771
248 82 0 43.76213361564441 4.12871051943819 10.627364502980964
249 83 0 21.00262588648873 19.427896457633814 5.583201354592064
250 83 1 20.956623418374697 19.011804377850996 4.416661755472483
251 83 0 20.02982726680291 18.629835523364576 4.733370716813591
252 84 0 16.53002419306553 38.43519491687366 23.059301537152443
253 84 1 16.58480696448368 39.2551878029817 23.6159116731225
254 84 0 16.711492860003958 38.815670674481495 24.482675794258842
255 85 0 45.92193250104241 39.00566834944488 30.99906086366457
256 85 1 45.543005814376734 38.26561494716919 31.525520201042614
257 85 0 44.89549459134155 37.68738360442831 31.023683980988242
258 86 0 25.567844056991422 36.10220287199263 40.629468981628726
259 86 1 24.91334469504596 36.645658358861446 41.1420377032977
260 86 0 24.07768614547224 36.14463844342283 41.27970109054424
261 87 0 16.96630697912657 5.098800287777557 19.625424604482443
262 87 1 16.066862371093304 5.170167137925588 20.028864589345346
263 87 0 15.603292661967858 6.008756215673623 19.78942464097139
264 88 0 43.573767342904354 18.767822821331865 14.177475139425578
265 88 1 43.86798050540944 19.159843915391324 13.33105927552186
266 88 0 43.03943890027651 19.377510193889627 12.838337789243235
267 89 0 39.68416630108144 34.105650011955134 44.912372687350135
268 89 1 39.4071502734838 34.75629629273934 45.61681243587957
269 89 0 38.55182949205506 35.21661216166999 45.433825968864234
270 90 0 39.82125124699301 9.036568835206761 14.50229395673507
271 90 1 39.54485503947829 8.694938987016538 12.983039245413948
272 90 0 38.584086877656574 8.486830500130889 12.877666608627829
273 91 0 17.08415256543601 8.081062931696168 10.15536410327863
274 91 1 16.88962338108139 7.77376717872425 11.087471622527609
275 91 0 16.83112110163491 8.622593331208575 11.825530815280334
276 92 0 10.524730797742412 32.20665925529618 32.3252283138801
277 92 1 9.757732460718138 32.86059646255214 32.62026307023924
278 92 0 9.278364698307982 32.664295846679515 33.50454775659553
279 93 0 20.137748491959094 9.639800306137854 10.246036813447725
280 93 1 19.995071004094246 9.53313835168104 9.302440950013017
281 93 0 18.86034986990862 10.101454748609884 9.408318603023467
282 94 0 25.353556565696827 42.04782862752794 35.714859032665345
283 94 1 24.96640432038628 42.69416015261437 36.358218096442194
284 94 0 24.08073378087448 42.44473457243214 36.72404676043628
285 95 0 11.12025882227913 16.476452697659415 43.56654141777638
286 95 1 10.710654171313978 17.253291774129192 43.98715181895305
287 95 0 11.456187597083527 17.663349200506403 43.48890805681403
288 96 0 15.931368984216583 42.46386344684203 23.040612971767
289 96 1 15.393922801742251 41.955825809994735 23.690323037192357
290 96 0 15.070858365055809 41.08313439776501 23.276507124793063
291 97 0 30.759586594887203 3.104012847649494 6.725959837101378
292 97 1 31.408364896007456 3.027496955122179 5.9843721482539
293 97 0 31.712111987394188 3.9280801010945683 6.2708837870488825
294 98 0 18.245079874160194 38.893962207704526 36.30747693720068
295 98 1 17.27878940287513 38.807597408822566 36.18263135358229
296 98 0 16.880245950148655 39.10734503073497 35.3366521702302
297 99 0 30.381530331496094 23.84950918528009 38.81124532733122
298 99 1 31.32286010608006 23.907659260567044 39.01792342240654
299 99 0 31.719733891959404 24.140398809742358 38.145443325064576
300 100 0 6.086076735513919 40.59759258421719 41.59957656664327
301 100 1 5.200621279855671 40.874610370589316 41.95843796052311
302 100 0 4.758298801358323 40.363242249259265 41.24422384891876
303 101 0 39.70075079878582 11.226420126552371 4.055267798307059
304 101 1 40.46191211352731 10.579384738125047 4.130864714154669
305 101 0 40.86194022109743 10.72110299249357 5.040404002978877
306 102 0 27.194286065080373 24.158000307046855 43.399646273126905
307 102 1 26.609418245744187 24.723355110589836 43.94333568151441
308 102 0 26.64984686841578 25.65734637044478 43.6480380551909
309 103 0 29.606532216763338 34.67879347677664 15.397835081888635
310 103 1 29.347292756256294 35.72519836945397 15.662822285588836
311 103 0 29.5660615298996 34.68678952895938 16.06014186512165
312 104 0 38.02166579819023 11.613695026797643 9.88965124804474
313 104 1 38.29172623456452 12.587744390130718 9.547431068929649
314 104 0 37.61446778126408 12.370384858238376 10.3038614234224
315 105 0 34.9862938446417 38.725965438610544 11.622930356454622
316 105 1 35.943309139014104 38.728783162948936 11.395377007377684
317 105 0 36.363597514220764 37.833140549193836 11.475603298659507
318 106 0 23.960513069407597 39.70094008108963 41.18976623078412
319 106 1 24.347315920997605 40.60035520795858 41.235548145512865
320 106 0 24.155249364898232 40.74192985289666 40.28090698883592
321 107 0 26.403506747373882 34.145830212623316 6.327058227838726
322 107 1 27.110593232138825 34.1417315650181 5.649103887204705
323 107 0 27.559536748455947 35.00386787324597 5.857435161443434
324 108 0 24.134002027997155 11.123787403776848 15.195866648980376
325 108 1 23.79284286459359 10.251386756428928 14.840743498586823
326 108 0 23.007628888759136 10.890346343594066 14.937445647799514
327 109 0 44.802627776337246 25.697148017069615 41.27405789921269
328 109 1 44.65447188822322 24.819378324709856 41.74552639625792
329 109 0 43.931806083555905 24.46740287757599 41.23494476459819
330 110 0 22.00895596547413 35.110223126910924 4.0235116394407315
331 110 1 22.736639906334407 35.70248460635322 3.7017253276235245
332 110 0 22.955076481322042 36.484371214246515 4.251802534874075
