ITEM: TIMESTEP
123
ITEM: NUMBER OF ATOMS
66
ITEM: BOX BOUNDS pp pp pp
0 50.0
0 50.0
0 50.0
ITEM: ATOMS id mol type x y z
0 0 0 27.15448687388735 23.781230315953888 32.334886998131005
1 0 1 26.959678375299163 23.236282462261926 33.053699902521714
2 0 0 26.71310977696004 23.71545604399124 33.84508530692862
3 1 0 26.524839444503918 44.050934823941255 7.536000821036743
4 1 1 26.57344670092502 43.410104293223036 6.890947049817814
5 1 0 26.259880754818113 42.45946960785665 7.10926654717986
6 2 0 38.2494161264696 25.27688481860363 38.3738997875852
7 2 1 38.03457553474098 24.654659996839804 37.80441048000133
8 2 0 37.373341864901704 24.932536243671414 37.24456656814354
9 3 0 17.20358435019958 34.696975522981234 24.630249089065927
10 3 1 16.21704205326381 34.78322179772963 24.137270327549164
11 3 0 15.834716389129829 33.86173800216375 23.965713633864823
12 4 0 33.82495636892763 18.412223503988283 24.5682844637997
13 4 1 33.94415162420639 17.87730811139436 23.843313263369573
14 4 0 34.02152270180579 17.02398055074024 24.08817824057174
15 5 0 17.562681528839192 18.913817459895387 25.58634283350901
16 5 1 17.072559731113962 19.48129958110974 26.029589769083632
17 5 0 17.077830285941765 20.286978275660058 25.647694688846777
18 6 0 12.78135838728606 21.50126008899542 15.235543348278762
19 6 1 12.286830568888403 21.51858268971199 14.451084464039708
20 6 0 11.6548334957031 20.83322567928157 14.555543432557648
21 7 0 36.63755688139292 6.945524008727741 39.106347163209286
22 7 1 37.182507918517025 7.553502298792377 39.59516531041155
23 7 0 36.953093594496124 8.532913417822572 39.59484003286522
24 8 0 5.963817693518134 14.99611706333071 8.711800612428245
25 8 1 5.238023849893759 14.604084519478556 8.248456037878844
26 8 0 5.221596853164573 13.759970719262641 8.331094724373125
27 9 0 26.534556768403597 12.73751361776109 27.922461496965642
28 9 1 26.63124258859334 13.590615308939334 27.722603394539625
29 9 0 26.048388002771972 14.11213638560007 28.205980088979842
30 10 0 33.79928695783796 15.39559588459526 10.571043900098532
31 10 1 34.3885343652227 14.758458703786882 10.770323476977628
32 10 0 34.222096674603165 14.419776681320084 11.590460195435158
33 11 0 33.43062394847406 46.217867351910016 13.150805657391043
34 11 1 34.324055867056195 46.32774629407894 13.37106917413666
35 11 0 34.58841058107172 45.78456158779112 14.031554067199654
36 12 0 25.05841762949685 48.34856579773847 37.19057922570139
37 12 1 25.3407332269603 47.69118047161414 37.78311989448052
38 12 0 25.253213425719142 46.697829267286636 37.5143411430938
39 13 0 35.42892696193781 26.760409250594353 45.92269872353907
40 13 1 35.66242727403021 25.8996526314816 46.15785714001161
41 13 0 35.57556646527564 25.326731022443088 45.45594435182163
42 14 0 12.565342892090854 29.260140538293644 23.050175664032256
43 14 1 13.34376898683491 29.175215063218918 22.44616306726993
44 14 0 13.646358141641846 28.264167998049984 22.27608536896619
45 15 0 31.759212922773703 22.424162390472624 43.37374559675118
46 15 1 31.681431545806507 21.95247492116103 44.16692395189989
47 15 0 30.79092832161382 21.835780445258795 44.39128369388012
48 16 0 44.22599516461098 37.12962646592432 44.645339474940315
49 16 1 43.6047869743737 36.75020893339896 45.298147202349966
50 16 0 42.63474831840839 36.654451836071644 45.0193763035332
51 17 0 23.98562800070002 39.113908490667825 42.98561126039986
52 17 1 23.617057744880697 39.9159875754395 42.958275514719965
53 17 0 23.075771568719052 39.9972827280908 42.28610641569333
54 18 0 39.90333898702845 4.455514787410735 18.80060776135021
55 18 1 40.53258524316257 3.780841574510174 18.60354245415707
56 18 0 40.85746207081575 3.469634467259582 19.26031136970481
57 19 0 37.2068246973288 12.357522812329943 15.200689947986007
58 19 1 38.03093014692675 12.428165860561622 15.531016698549836
59 19 0 38.45448168496805 13.111597511257667 15.192888388297874
60 20 0 11.91318369978711 44.3474737007109 30.606301795769927
61 20 1 12.548439773734792 44.96458677886151 30.852599114217863
62 20 0 13.312234942175385 44.560153060256205 31.210783187710778
63 21 0 9.835065375307906 44.35995480724976 34.192959963176364
64 21 1 10.481505249008784 43.634524334844876 34.16941327615191
65 21 0 10.888751355508028 43.849692017184125 35.05571422594457
