ITEM: TIMESTEP
125
ITEM: NUMBER OF ATOMS
33
ITEM: BOX BOUNDS pp pp pp
0 50.0
0 50.0
0 50.0
ITEM: ATOMS id mol type x y z
0 0 0 27.1585221385238 23.88354611895847 32.31082045772269
1 0 1 26.959297117720737 23.226135703688126 33.05650384129723
2 0 0 26.716409043780867 23.777257438770253 33.827774130690834
3 1 0 26.569936106398377 44.25515746328914 7.5572603547204285
4 1 1 26.5664713669068 43.396597002639936 6.902718492472482
5 1 0 26.331393046535382 42.47428787045939 6.903354555056192
6 2 0 38.349076184919205 25.385512439649858 38.541949934699936
7 2 1 38.033058727494826 24.645372274580943 37.801469712147586
8 2 0 37.274146659599566 24.96988516200172 37.15923702910038
9 3 0 16.890490434933433 36.14116893216898 22.92338270517288
10 3 1 15.911923591189607 35.95515920884185 23.136920594088817
11 3 0 15.817712883354837 34.9962687521291 23.42104196109717
12 4 0 33.80986260939626 18.463313930133964 24.683990412979732
13 4 1 33.94459895059626 17.882985038473407 23.832075258928064
14 4 0 34.03322469567163 16.879421677242593 24.147650084183848
15 5 0 17.687101586063953 18.826399469046805 25.447676699639285
16 5 1 17.061858066837445 19.47954863822506 26.04585128732091
17 5 0 17.123148870248873 20.40868927393881 25.52590624096231
18 6 0 13.005377249737265 21.631224059138663 15.374804925501417
19 6 1 12.286103181697674 21.51838490528388 14.45072937449145
20 6 0 11.444303925919261 20.71013800379616 14.425364346523837
21 7 0 36.77330729966849 6.608531230232376 39.146878643792355
22 7 1 37.15645864541224 7.56995322959241 39.579380540765534
23 7 0 37.234391155881156 8.606009337805336 39.80713910554502
24 8 0 6.0388526442433905 14.913522303078148 8.773379232184194
25 8 1 5.227756744828588 14.623057436923403 8.239115843812376
26 8 0 5.3102834034170145 13.538786538632845 8.417660532523254
27 9 0 26.48910295347119 12.58188622853758 27.985161390963807
28 9 1 26.639354529282404 13.599500410611421 27.7138069982759
29 9 0 25.96312931379133 14.12634012460468 28.284599104510463
30 10 0 33.719129627620134 15.522716011733902 10.47573555758906
31 10 1 34.397704855071446 14.75288604889554 10.774122959429285
32 10 0 34.233159479080975 14.332183112503065 11.726623155255147
