ITEM: TIMESTEP
128
ITEM: NUMBER OF ATOMS
333
ITEM: BOX BOUNDS pp pp pp
0 50.0
0 50.0
0 50.0
ITEM: ATOMS id mol type x y z
0 0 0 27.137182581517465 23.882837683153234 32.37689863024911
1 0 1 26.957082846278606 23.224694551467582 33.05711976751116
2 0 0 26.719281021157382 23.791543952645547 33.809491277692274
3 1 0 36.4177706559539 44.406685893584694 14.079739786886869
4 1 1 28.076409511267528 43.13932884071789 2.254390218145287
5 1 0 26.780946041292342 42.778548087106955 5.616143453457639
6 2 0 38.96678185123819 25.15043638701476 37.5139738587285
7 2 1 38.23067299766821 24.51156494602071 37.53713860939818
8 2 0 37.521064927256965 24.70925336515414 36.879062701878816
9 3 0 14.447851789307807 33.717937259175606 22.453876618754133
10 3 1 14.425479382677239 34.4826660092214 23.057910367603757
11 3 0 14.799970796268415 34.00560742111363 23.818885462563472
12 4 0 33.81638131765946 18.456796795022864 24.61131892375167
13 4 1 33.94428247328401 17.87648803018278 23.837212894622915
14 4 0 34.02402290660932 16.960893590079607 24.151014878670058
15 5 0 16.573703870115164 5.266570721184065 38.4880024790333
16 5 1 16.136338142834855 5.253169103576355 39.37380139452686
17 5 0 16.008215686998284 6.191458787232598 39.03307962310876
18 6 0 44.35757598459201 39.707769531859036 8.285748016512484
19 6 1 44.68987393913393 39.58449556476517 9.207101730828116
20 6 0 43.84098618098926 39.51111680478733 9.777745916700564
21 7 0 36.52264251558757 7.114194600594153 39.05255987053378
22 7 1 37.19682254796945 7.5476622050838715 39.604476561451634
23 7 0 36.83717260098827 8.457789230360135 39.50011974491514
24 8 0 3.7314360242466798 15.61895200204814 10.448228056284723
25 8 1 3.7175304351070446 15.176480689836152 9.548374631480996
26 8 0 4.343668810977597 14.431231566504417 9.506153887276465
27 9 0 10.713643163989632 18.209151680338515 13.973992037443413
28 9 1 10.000760024298389 18.810776377069054 13.670116102093715
29 9 0 9.866257266400256 19.079766012363613 14.602756753477701
30 10 0 32.404285571864065 16.305128472393502 10.634195052781667
31 10 1 33.43181227300715 16.421517538860947 10.295373796676976
32 10 0 33.82257222402309 17.33366649340964 10.08593439533873
33 11 0 33.38577679523837 46.17627387903758 13.176957922050155
34 11 1 34.33162597766025 46.33512933124201 13.366021765017054
35 11 0 34.506955381440555 45.70544722908472 14.082930540847968
36 12 0 40.722300739723714 37.88568863866141 11.070824412224345
37 12 1 41.69893704476353 37.93547375717142 11.147186907943007
38 12 0 41.90972292438649 37.4495988033607 11.973238357517705
39 13 0 35.409729954504684 26.783476835445285 45.87378260360126
40 13 1 35.65700562281895 25.888901862723678 46.160407034285605
41 13 0 35.54633905399598 25.33371157973546 45.374846799256176
42 14 0 12.601254756205448 29.08299020082329 23.03708725449813
43 14 1 13.3549904730682 29.19225950748937 22.443751098442224
44 14 0 13.512580510252322 28.244761921812167 22.383371151840816
45 15 0 31.43039521287737 23.645877683738394 41.88852311170749
46 15 1 31.568517754356137 23.057903070557604 42.726471835463165
47 15 0 30.776131463641015 22.71587441263266 43.19710623498009
48 16 0 43.951875037266916 35.97043036869097 44.31712937462679
49 16 1 43.547420839609835 36.10729779486841 45.192422552500794
50 16 0 42.663150770749205 36.308953603415304 44.81750786350004
51 17 0 44.29896071150004 22.571727199747208 25.398599652287547
52 17 1 44.5227372712875 23.26806401767608 24.75505995348298
53 17 0 43.656819840775874 23.68884380507192 24.551902652635878
54 18 0 35.18891538473895 7.4356619094547804 26.111942753831578
55 18 1 34.71007323090594 6.629705172533201 25.82905267336568
56 18 0 35.31787751743576 6.167838357112288 25.222767874931545
57 19 0 37.112967504030536 12.30059276115091 15.199402117630784
58 19 1 38.03189153833424 12.42875694014867 15.529753167823145
59 19 0 38.45719616928801 13.209143109695653 15.117249565081263
60 20 0 12.786550385674863 43.76316077528708 31.017636814753086
61 20 1 13.525481030284817 44.311962307437454 31.34053706081052
62 20 0 14.311683394509384 43.754259261133335 31.66404996817417
63 21 0 10.136020712714954 43.51113462968738 33.31277937252292
64 21 1 10.461754491947197 43.78429754187524 34.183110732328885
65 21 0 11.074835058782222 43.03022524234696 34.12761460821279
66 22 0 5.378312563498555 26.796575121350106 44.9781496320616
67 22 1 4.87537342300645 26.722602240811284 45.966031191467344
68 22 0 5.538391502028323 26.19359969107288 45.26417674752235
69 23 0 45.64037037364263 11.962191201818838 34.422974624769736
70 23 1 46.07413554938066 11.17705003356548 34.04903459216977
71 23 0 45.301285661686954 10.584378730582436 34.015500711035386
72 24 0 37.80051156669954 30.6178290280195 41.306653395180625
73 24 1 38.44727053026544 31.339250836710054 41.30853906585135
74 24 0 38.12130934236201 31.766712354483886 40.49404050941833
75 25 0 46.136847263345416 35.4343064216983 11.643134860702196
76 25 1 45.34882813048654 35.874358424453156 11.995201064725853
77 25 0 44.490761427884365 35.537360074728525 11.649311676113921
78 26 0 22.990299549576157 14.132004091085822 27.824948317852403
79 26 1 23.593807966687994 13.747349242486106 28.49074728620825
80 26 0 24.47137802417009 13.429869059029409 28.19547454216608
81 27 0 25.527488948779666 11.44861677553832 10.237731903703635
82 27 1 25.838590881318886 10.523373171691588 10.24991480607437
83 27 0 25.23221414500507 10.095260829341631 10.90941779840558
84 28 0 8.984266280944839 28.01155443645639 29.7748423512892
85 28 1 8.44068186433399 27.498399842833162 29.145696662134903
86 28 0 9.13201317853357 27.072362339655182 28.59353831789386
87 29 0 30.9725024716208 34.82123867283154 16.939583492687085
88 29 1 31.599750219737476 35.15751864829478 16.272353649726146
89 29 0 31.99565730570064 34.272796432243794 16.129170526474116
90 30 0 48.180809683739064 15.153456582502942 43.99323270124908
91 30 1 48.06865775844797 14.885984195382512 44.92262050612733
92 30 0 47.92124658124558 15.8173383214259 45.13109498772562
93 31 0 28.62084990401323 3.995070555008662 16.97907060302746
94 31 1 29.332391043778976 4.139341529836836 17.62847047515185
95 31 0 29.262321325789017 5.077358286118927 17.93852880783903
96 32 0 9.52844866189047 39.092604391309706 10.378178270702174
97 32 1 8.833088953971723 38.9797065675873 9.716897596705675
98 32 0 9.097577780099028 38.11624620623516 9.351758915837747
99 33 0 43.52423339239047 38.1087954799095 20.767657143646574
100 33 1 43.295147288618814 37.45011000517846 20.085548002884742
101 33 0 42.764159715305624 36.76840441090234 20.575256705349855
102 34 0 1.7282479180298609 34.31357177821155 10.980094662686145
103 34 1 1.0899616771889706 34.710217339457124 10.363122460327663
104 34 0 0.5751972552146125 33.9396260591875 10.649749848476471
105 35 0 37.42163363550966 30.717938347910582 20.65858011769716
106 35 1 38.18098436666898 30.542287215346576 20.086372149031487
107 35 0 37.74102935026112 29.780559001738958 19.663820230318738
108 36 0 36.47712382173682 45.476853065913154 45.822682279666054
109 36 1 36.86625715973147 46.37280245519228 45.79585330881193
110 36 0 36.55657437594175 46.433425242505585 44.860612258642334
111 37 0 14.535086039888158 19.08704149653336 29.75560908308622
112 37 1 14.063716511784703 19.48344937337672 28.99635947959944
113 37 0 14.227380677120635 19.176571826269967 28.081471368778214
114 38 0 6.695647535663333 25.41085563310128 18.0892756656125
115 38 1 6.29866306620012 26.105105139424335 17.514330090099932
116 38 0 6.73261847567048 26.980145084955897 17.617936994382216
117 39 0 23.462855473514 32.26907931141326 16.138625399163665
118 39 1 24.341998711044504 32.59893653921903 16.371119890785955
119 39 0 24.24858800936709 32.395824451629366 17.31984314303305
120 40 0 21.931692787490235 43.06425044024351 24.49634979070076
121 40 1 22.871245072660255 42.84649449567556 24.36191648231927
122 40 0 23.222911149601448 42.17574082115406 24.988455783526202
123 41 0 31.770731967939398 26.777130747899616 14.428481565234094
124 41 1 31.087917182543364 26.152926495159704 14.74314588656374
125 41 0 30.768957564916114 26.707901115964084 15.487816127219011
126 42 0 23.458640477316653 46.21708439407439 30.704224609623516
127 42 1 23.747893662962866 47.02793519777176 30.255828963127573
128 42 0 24.63642396387377 47.197353884017815 30.60596901391456
129 43 0 4.75173637312475 21.258464430892555 15.31368878014928
130 43 1 5.3693537869332815 20.523884293949052 15.137291287195676
131 43 0 6.022339745006564 20.26284068474635 15.84185431812495
132 44 0 9.694341663653558 21.2548285472861 42.849885269171445
133 44 1 9.496821426942226 21.406289985821953 43.80576612912396
134 44 0 9.298301505762552 22.34810602878085 43.98465067479888
135 45 0 29.474493558379695 4.199861306123651 2.3997668357848467
136 45 1 29.964141746250302 4.079636200181165 1.57852104513728
137 45 0 30.00331650821125 5.017411185843481 1.3222396701943924
138 46 0 4.5882657248058125 8.758115773755767 28.634771425440167
139 46 1 4.759942610087277 8.87038093133968 29.59767556019488
140 46 0 5.631934186463623 9.375238985401138 29.82842830123579
141 47 0 43.55934476638338 7.202232626488139 38.757818112624506
142 47 1 44.175538752302074 6.420577637904918 38.60907591018236
143 47 0 43.480737059639814 5.87577955837728 38.22029500357316
144 48 0 4.213130759492442 18.33869594951309 4.710966059856445
145 48 1 4.312997369921981 17.70882722314719 3.978319036112444
146 48 0 5.266915403784847 17.552776238994994 4.110167791860626
147 49 0 15.758116636427376 21.11175472708183 38.28986503203504
148 49 1 15.460901254780154 20.767793924620086 39.160024387706834
149 49 0 16.11542780796412 21.258593919471522 39.69547725411783
150 50 0 8.486866576565163 46.704658959527784 12.851150846051445
151 50 1 8.143496313029168 45.91770561229434 13.295490458064197
152 50 0 8.88266387987575 45.469374933725916 13.784499457158514
153 51 0 20.15076637127221 34.815282827649376 12.501489009351141
154 51 1 19.36326390197476 35.36582156621743 12.308842336061119
155 51 0 18.57355883597331 34.818644563356294 12.451249779326842
156 52 0 46.65800421545781 30.169037559862176 41.35142082858518
157 52 1 46.842238627313485 30.91992022887915 41.94657327881409
158 52 0 46.90425673078599 31.737111969712412 41.43228117166538
159 53 0 7.618051121567718 16.834762421539807 9.748634770262452
160 53 1 6.930125065702745 16.130827870270792 9.64685379607399
161 53 0 7.137618943258895 15.483486833683603 10.344182148146391
162 54 0 17.055683221284376 30.872985777993126 31.268799940453885
163 54 1 17.228391287899953 30.656536458437404 30.30926445158789
164 54 0 18.13397714967355 29.937370287346358 30.214444806342435
165 55 0 2.2976697072132053 38.876009499850454 22.28989990101101
166 55 1 2.0379698827928006 39.562215196101846 22.94317276258303
167 55 0 2.7270211309428616 39.08252307870829 23.45016239733433
168 56 0 6.214166170259495 15.130482782331576 23.64310450711995
169 56 1 5.879328231337253 14.253923828800668 23.366085420924293
170 56 0 5.595666435774453 13.891290076095332 24.212584433715787
171 57 0 43.4012277329596 27.019581377346444 37.393437621972616
172 57 1 44.40250025586035 27.165991861926383 37.167694141683434
173 57 0 43.657648191808015 26.84491140116996 36.52711205803345
174 58 0 22.716888158526206 4.793724006555293 35.13986659858754
175 58 1 22.72751368271081 3.749006320402753 35.299190597424825
176 58 0 22.122618328251484 4.555000694033033 35.56729240005087
177 59 0 12.06396916531806 7.863606076142885 26.904287501128454
178 59 1 12.044559841805196 8.05927946367531 27.920140837885864
179 59 0 12.635305779994894 8.698895901913081 28.41915940887906
180 60 0 29.442069674823216 35.20839356452035 7.467953666323042
181 60 1 33.984584506772784 19.616595863776247 11.838428167819503
182 60 0 29.18246103248152 33.587683200543424 7.825249128895779
183 61 0 21.42599156264894 27.24354144154785 31.52214290378028
184 61 1 21.3300946627884 26.691700160025157 32.32425394501372
185 61 0 20.59083433049408 26.073706735001284 32.173396321520435
186 62 0 9.99676049753362 48.43819111148716 41.860631323646004
187 62 1 9.092240623658176 48.10878678876568 41.94429984435988
188 62 0 9.260787064732092 47.38076112299033 41.329399542378354
189 63 0 44.82672618996639 6.915111524015503 12.098028420886305
190 63 1 44.54468071011052 6.4893897758324375 11.258928418219197
191 63 0 43.90076655412182 7.178535246620048 10.990582211391148
192 64 0 42.78334018416248 10.183990768440898 30.828621008420395
193 64 1 42.9571836796426 9.536124592860144 31.546778847922067
194 64 0 42.11972672972893 9.146699769137893 31.860426107536455
195 65 0 6.963435404931086 39.89382346153085 33.4506476657638
196 65 1 7.594017795310691 40.33460358606408 34.05083498158303
197 65 0 8.442399090981995 39.77065299701648 33.78520274569956
198 66 0 23.740263730081434 21.201936063498923 45.070060945724805
199 66 1 23.245696602267227 20.713959105432778 45.80641687308397
200 66 0 22.397775803466935 20.31395683906453 45.522904001985715
201 67 0 5.406814273628599 6.538306936546588 45.13749328957116
202 67 1 5.583300494908806 5.837675122342189 45.83112020578304
203 67 0 6.246819783161441 5.889364797491589 45.07336219038232
204 68 0 20.91802933409818 29.53150322340667 27.990429045646636
205 68 1 20.639647579796005 30.458519198531 27.800461362911125
206 68 0 20.0059876759501 30.886395196540896 28.414683146346672
207 69 0 45.70479135129252 41.836639736371154 37.21804232002182
208 69 1 45.306098062010605 42.568531453610134 36.695844206952465
209 69 0 44.20557338039401 42.568876909920135 36.600223305328385
210 70 0 22.97729598082445 35.77475205935076 45.73969726572641
211 70 1 23.880924277791763 35.734495984630485 46.08638946444461
212 70 0 23.905646488805047 34.802694717588786 45.80872757209919
213 71 0 46.64727797204447 22.59902246383573 21.766566371463153
214 71 1 46.472132571061 22.032907188017685 20.994283857611254
215 71 0 45.49666886271136 22.1105135298645 20.989320341073793
216 72 0 30.967999478895447 11.543595057855558 10.95232532614553
217 72 1 30.567032556884094 11.199821779003242 10.146110959462906
218 72 0 31.006740099393394 10.354437587151773 10.289311336661891
219 73 0 19.651281655039945 40.50328816396742 9.945958973749326
220 73 1 19.929530220393534 40.54221189860637 9.00787971930489
221 73 0 19.837404277743268 39.59298082471473 8.857561029931531
222 74 0 35.51258623553425 14.947439259159369 3.909883611541992
223 74 1 36.14422353860681 13.798535696692953 3.5806918034858217
224 74 0 35.25940336426442 14.730125220811232 3.967882746485919
225 75 0 8.319972689842805 20.729816214728025 21.607532358810683
226 75 1 7.565631424354596 20.112172228043626 21.52104670561349
227 75 0 7.734822699268543 19.318730071566243 22.064270195524053
228 76 0 9.224894487153792 14.514320284983144 18.763167025399177
229 76 1 9.051422531818119 13.494909686862952 18.855725378229234
230 76 0 9.987941595717297 13.86449758054978 18.59060751244702
231 77 0 11.708773032153033 4.234989926151789 24.617025865621322
232 77 1 11.893278820271671 3.2875893514423953 24.685148858293022
233 77 0 12.803212529186453 3.329633620923024 24.338678199592437
234 78 0 5.690723804440487 12.167725065633146 5.296902849554374
235 78 1 5.9648476668239665 12.845363947865351 4.653655291098905
236 78 0 5.796632129966529 13.785398820957582 4.886308904166325
237 79 0 10.164805818884638 12.816980202828745 22.381365451022187
238 79 1 9.794187810962308 11.956822921732408 22.649259916167406
239 79 0 10.311180291396422 11.789518830099828 23.451796625255106
240 80 0 43.78444784109625 22.979807353588885 40.32318671133338
241 80 1 43.905097217857694 22.888838841877504 41.30232103439233
242 80 0 46.60626810091629 27.014432201582483 41.948550810466855
243 81 0 25.768462248789326 11.352946582350787 34.55770906848842
244 81 1 25.786059309003015 10.448227327229192 35.076304079533465
245 81 0 26.119777154746288 9.804286554465794 34.44425195803187
246 82 0 43.47112362536875 2.603564274950862 10.038774905310094
247 82 1 44.20271957935848 3.1324769840555904 10.423821846018239
248 82 0 43.786890258066855 4.0869394613312275 10.620648722240311
249 83 0 21.024009967476047 19.409074682694563 5.493624401074183
250 83 1 20.954014770585523 19.01321162358688 4.424941961480334
251 83 0 20.05018043149419 18.626146064831023 4.690459669684022
252 84 0 16.528397002974337 38.45369534154784 23.050426968676113
253 84 1 16.58467568741478 39.2533966647114 23.616312729483347
254 84 0 16.711408278508138 38.83475880554233 24.485408937453766
255 85 0 45.914869469575265 38.99770417267423 30.99696832737265
256 85 1 45.54283872155629 38.26535765882773 31.525606032617716
257 85 0 44.905234085531006 37.6994410732866 31.024371002722262
258 86 0 25.55974284959402 36.10648317684187 40.63475653831356
259 86 1 24.913417197635393 36.64521272833809 41.14182105363804
260 86 0 24.08475978649599 36.1469441422878 41.27769736883617
261 87 0 16.957538906679034 5.104159516422963 19.62675535638669
262 87 1 16.066896428572605 5.17020014628662 20.028828435455424
263 87 0 15.61155150396921 6.002870936360489 19.78863802737166
264 88 0 43.58120482513735 18.769305375112783 14.174419400769898
265 88 1 43.86685530019772 19.15974001431731 13.331260218680473
266 88 0 43.05001799969512 19.377698567840852 12.83817096938475
267 89 0 39.674685353773434 34.11514524287755 44.91704537111158
268 89 1 39.407275026142095 34.756198879992596 45.61683070856521
269 89 0 38.55892938236663 35.20862526285957 45.42900616227739
270 90 0 39.786538491863126 8.993299677703364 14.309644441064068
271 90 1 39.546435077687136 8.69750642802664 12.99506734798361
272 90 0 38.59355816229357 8.48871668480742 12.877866785017469
273 91 0 17.08172211993521 8.082123493266167 10.169209506684165
274 91 1 16.8895210441758 7.776027689334487 11.08901103216778
275 91 0 16.834706911393784 8.585086041569758 11.787303805583097
276 92 0 10.501842345985207 32.218557349880065 32.34284547169064
277 92 1 9.758118868072856 32.86020410461735 32.62019041501239
278 92 0 9.295065202699424 32.65870101118456 33.48812479819004
279 93 0 20.165762223252884 9.625745528483517 10.243201970943971
280 93 1 19.987904246039037 9.536972111199384 9.30427711719426
281 93 0 18.9473669540417 10.054420349994167 9.381466306909358
282 94 0 25.342790294917766 42.049123088604844 35.72207344997487
283 94 1 24.966538412856337 42.694387271510784 36.35827388262487
284 94 0 24.089387478561278 42.43987894688607 36.715798907164285
285 95 0 11.084734018052117 16.451351570886484 43.589469012969246
286 95 1 10.714105291542301 17.252365319293087 43.984442021045844
287 95 0 11.436604183564992 17.702852839181098 43.509369071075064
288 96 0 15.926997405239653 42.45895121393369 23.044703235168008
289 96 1 15.394034570195572 41.95457163367625 23.689650873564826
290 96 0 15.07728778904316 41.09934909546296 23.282889223852855
291 97 0 30.752041562959057 3.069685293385478 6.710755201562009
292 97 1 31.407462655764782 3.030232542743823 5.987207403315272
293 97 0 31.734181296403108 3.9185606095583028 6.240982739523005
294 98 0 18.240565856964523 38.89927243769427 36.29335759145815
295 98 1 17.278071146725402 38.807153970735946 36.18343570058052
296 98 0 16.896250491263398 39.10911662496032 35.337911120132944
297 99 0 30.380757480572342 23.847100371247254 38.821956603737256
298 99 1 31.322512730942076 23.907930174356736 39.016495880485586
299 99 0 31.726032158765907 24.13858482394572 38.15697950990045
300 100 0 6.089859717855666 40.616125318325885 41.625156244035814
301 100 1 5.2018762097935625 40.87268661339838 41.955825741831426
302 100 0 4.73442338160355 40.37547911029761 41.26045639876952
303 101 0 39.70986165705645 11.216326767539956 4.051928968988355
304 101 1 40.46149680166387 10.580339534043848 4.131903301583329
305 101 0 40.859619932938756 10.71581448229853 5.0270609816767715
306 102 0 27.191562328712457 24.163185058051884 43.40149638707995
307 102 1 26.60950026157268 24.723451775225918 43.94320965258294
308 102 0 26.6511574600967 25.650757478529574 43.648228085303195
309 103 0 29.594897223639038 34.75038226311768 15.317145763721832
310 103 1 29.359151964481164 35.713097442329406 15.666348166205603
311 103 0 29.54363747871736 34.77035408150667 16.1264047047337
312 104 0 38.07757449465298 11.616126271073052 9.827908657734508
313 104 1 38.287928359538846 12.582421928201732 9.55185714367928
314 104 0 37.61934783567899 12.453200967516885 10.294689743931656
315 105 0 34.993761161916694 38.72064052471237 11.622228247038953
316 105 1 35.94340317705054 38.728666818619345 11.395375911307502
317 105 0 36.35454258868983 37.84034452260101 11.476303022862663
318 106 0 23.968789355788577 39.702826638593386 41.21839219031009
319 106 1 24.34598254075435 40.59867822956307 41.23320881120009
320 106 0 24.168208537687015 40.76740460243164 40.28984989176544
321 107 0 26.40312777543266 34.13322693294795 6.318118438800206
322 107 1 27.11036005986817 34.14322759157567 5.650446530174068
323 107 0 27.563791977944753 34.99242170732547 5.844920597276974
324 108 0 24.18200188393618 11.0903251823684 15.191891929897956
325 108 1 23.791061260890956 10.25667332697348 14.842303364214406
326 108 0 22.98806400570033 10.839225607885126 14.916706837163828
327 109 0 44.80536303668746 25.673141798688338 41.29398848438913
328 109 1 44.448137844370954 24.550808161564657 41.70960216657409
329 109 0 43.91997871057408 24.40903519613069 41.24673992096312
330 110 0 22.014921358653158 35.12320725009088 4.0295710347609175
331 110 1 22.73687882173632 35.70219797904652 3.7010806474770805
332 110 0 22.94510612904197 36.476023095578746 4.255953756387167
