ITEM: TIMESTEP
131
ITEM: NUMBER OF ATOMS
66
ITEM: BOX BOUNDS pp pp pp
0 50.0
0 50.0
0 50.0
ITEM: ATOMS id mol type x y z
0 0 0 27.145101674535532 23.796979013367835 32.365171910653025
1 0 1 26.959919949908013 23.23356036681888 33.052896560110085
2 0 0 26.717091142305765 23.746022164270038 33.82827495396729
3 1 0 26.478391589113382 43.93924758459173 7.590737577705728
4 1 1 26.578292108624378 43.41492939576896 6.879372988429811
5 1 0 26.226343780585836 42.49307361270677 7.237544441863579
6 2 0 38.25030108611573 25.251602589564733 38.36053166647513
7 2 1 38.034932697577766 24.653382182581083 37.80272007688911
8 2 0 37.37542701717595 24.978970667969268 37.27150475518939
9 3 0 17.194283885827968 34.56284623392063 24.628320609639896
10 3 1 16.214151157347814 34.79649166546594 24.135692409723102
11 3 0 15.916718913160167 33.83353560626211 24.007267493990994
12 4 0 33.82668562760342 18.40048592832872 24.56534711063003
13 4 1 33.944414684639426 17.87721917703947 23.844095651108862
14 4 0 34.02053637613261 17.041577175480985 24.077656555882843
15 5 0 17.54679629066485 18.92019116965994 25.606207535847343
16 5 1 17.073223465397874 19.481558323443902 26.028382342058254
17 5 0 17.081528204188096 20.274423205560666 25.648152817794266
18 6 0 12.771176677197515 21.509172208785156 15.207574787263626
19 6 1 12.286625230915526 21.516630249359235 14.453617620525662
20 6 0 11.668584792771263 20.856000599576973 14.541027223935263
21 7 0 36.56382349422563 7.071063469401514 39.074769242704704
22 7 1 37.19572569401992 7.548104643922627 39.60368098799636
23 7 0 36.81560903210778 8.493055700462893 39.49039675992966
24 8 0 5.981780637077177 14.977390059747929 8.726420114686297
25 8 1 5.238173315023049 14.602890025992666 8.248672605665904
26 8 0 5.20007095129601 13.796676761848795 8.311954215765919
27 9 0 26.546373514764245 12.758232109829217 27.90861676137105
28 9 1 26.630398765463198 13.589695285453093 27.72335782839936
29 9 0 26.045983780283084 14.09955274629657 28.209784619279617
30 10 0 33.80531233000346 15.385185942950079 10.578691519041024
31 10 1 34.386981305210476 14.7593627439798 10.767310241776684
32 10 0 34.20404017049182 14.439279849513609 11.582011604850441
33 11 0 33.43176207285678 46.20446168840676 13.165181309602739
34 11 1 34.324776523317006 46.32805128747695 13.371146061687563
35 11 0 34.57828642453888 45.794074078054756 14.017983429574397
36 12 0 25.029552370855203 48.22559025669915 37.11656799241848
37 12 1 25.347487608119444 47.69543560321251 37.79823466333065
38 12 0 25.17577501681521 46.75809063329465 37.343446761099635
39 13 0 35.430834824305926 26.755004481117588 45.92127599113115
40 13 1 35.666048498322844 25.903521351729907 46.15979181729636
41 13 0 35.58048489346412 25.33788582415705 45.47002964137252
42 14 0 12.575787870704174 29.088213912357233 23.061493027394757
43 14 1 13.349231822841345 29.18590843281951 22.43779847854802
44 14 0 13.521537988008607 28.218326339462372 22.38398113260318
45 15 0 31.75543784941799 22.417894448387038 43.38060606205639
46 15 1 31.676931221823445 21.948561223816466 44.16495845627507
47 15 0 30.794939643544332 21.83591976520059 44.388391917542585
48 16 0 44.09145682282392 37.14179594773494 44.53997361481054
49 16 1 43.609906467773 36.7443959228948 45.31629989484435
50 16 0 42.688134135562585 36.736260564042574 44.83447968798468
51 17 0 23.979082321452733 39.124774952263316 42.983397262248616
52 17 1 23.616701037013975 39.914359917034375 42.9573269116029
53 17 0 23.087029716992806 40.00756263963704 42.30725624629981
54 18 0 39.90999617550193 4.453527525627904 18.90920058282573
55 18 1 40.53090794569186 3.782371009556438 18.603429419745673
56 18 0 40.87960482225484 3.441015407030982 19.15555579056641
57 19 0 37.22472595620759 12.380511015083735 15.191518278713952
58 19 1 38.0327589338951 12.426684798778158 15.533671353576489
59 19 0 38.44387429415618 13.09284369454016 15.202972810578814
60 20 0 11.939246593670662 44.3635781535722 30.589569184339425
61 20 1 12.566445163172087 44.97548306529978 30.822884162515848
62 20 0 13.313737317569219 44.560005004303555 31.193335999535794
63 21 0 9.792312696520614 44.2965754955989 34.10903113565702
64 21 1 10.460181660225668 43.63435387561994 34.207683185450236
65 21 0 10.955479550033532 43.72686929372021 35.03745136918349
