ITEM: TIMESTEP
137
ITEM: NUMBER OF ATOMS
333
ITEM: BOX BOUNDS pp pp pp
0 50.0
0 50.0
0 50.0
ITEM: ATOMS id mol type x y z
0 0 0 27.14006560927367 23.87190110539103 32.368192157688576
1 0 1 26.956974300888486 23.226219083634163 33.05733892515423
2 0 0 26.71816222293969 23.77806037652076 33.81467240687953
3 1 0 33.707551451297874 43.99441097807763 10.251302725443805
4 1 1 28.224391430480317 43.15926408063617 2.5449774309832587
5 1 0 27.123490853662872 42.87180365177827 4.795147698854171
6 2 0 38.96007162851801 25.150438739758783 37.50931214595719
7 2 1 38.23046667528596 24.5113631010004 37.53716109637226
8 2 0 37.53105989132634 24.712449467094473 36.88332882543926
9 3 0 14.438398769251332 33.7352620372374 22.439320185191516
10 3 1 14.426255699984134 34.48019696395418 23.058194336956817
11 3 0 14.796944897259507 34.02775819798746 23.828877949160372
12 4 0 33.816975455977136 18.45520090568337 24.606141233443196
13 4 1 33.944250404917575 17.876418062739084 23.83771617707466
14 4 0 34.023940498186626 16.963610680106896 24.148143794544385
15 5 0 16.583514810781587 5.211140435721804 38.503633194644586
16 5 1 16.1373034528634 5.256782763315015 39.36956209196302
17 5 0 15.982944097977455 6.189071447817018 39.08528950603926
18 6 0 44.36839866175072 39.70698586466008 8.291462576280958
19 6 1 44.68779703776497 39.58452925389431 9.207096643005489
20 6 0 43.86384933620367 39.51191420968202 9.7715851221528
21 7 0 36.535777432573404 7.0953581375587 39.05877000438813
22 7 1 37.19476598079738 7.548793332685541 39.60320362328636
23 7 0 36.85690798497051 8.458529677651871 39.5142867736965
24 8 0 3.7335720513076818 15.61029473033714 10.436216722485332
25 8 1 3.7175640720690906 15.176772081743929 9.548908875638235
26 8 0 4.341568087704491 14.435397955091638 9.509774346324638
27 9 0 10.713934622613115 18.20332681706121 13.938574739748336
28 9 1 10.002309115488902 18.809890078987262 13.673360326969851
29 9 0 9.841452197955034 19.09977542136412 14.58626192711781
30 10 0 32.4441958181335 16.326982002216223 10.619417968995757
31 10 1 33.43083882439864 16.420679930474016 10.295748278225052
32 10 0 33.798144492284145 17.324837827750752 10.09450754233477
33 11 0 33.391563423625634 46.18564939153857 13.169422043877695
34 11 1 34.33056909670065 46.33418766723749 13.36660976646496
35 11 0 34.5180439340659 45.711229989349796 14.08109336471802
36 12 0 40.7294138137123 37.890171497102436 11.064663074256613
37 12 1 41.69805752132717 37.93488480734962 11.148021052459764
38 12 0 41.91585761393527 37.454493911529234 11.966266565367508
39 13 0 35.412025852359356 26.782824896059278 45.88170756550211
40 13 1 35.65670941793635 25.889232389932662 46.159545649081394
41 13 0 35.54883881423989 25.329100999959817 45.38078580970123
42 14 0 12.599120701990444 29.110946989027195 23.036911383717474
43 14 1 13.353767653768431 29.190173638535082 22.44483451977515
44 14 0 13.534249129009513 28.25002526307706 22.3661741458807
45 15 0 31.41984691336288 23.63027917049135 41.91055623177645
46 15 1 31.569349248740863 23.05824879336455 42.72600609943101
47 15 0 30.773515144006794 22.72571016425969 43.18308294261688
48 16 0 43.97385060680887 35.96570497697145 44.33306861128697
49 16 1 43.54628518092207 36.10748354769542 45.18971687726382
50 16 0 42.65989563861919 36.3109444531354 44.844972359074134
51 17 0 44.309066706707426 22.57247857372054 25.396079976218996
52 17 1 44.52139680693035 23.26787114050251 24.75550369244343
53 17 0 43.66795962463968 23.691302686077737 24.547715709053996
54 18 0 35.180494071496774 7.432328567315621 26.11401561167026
55 18 1 34.71107785903818 6.630085518882304 25.82879447100674
56 18 0 35.31022469333086 6.165082258380539 25.22482916754724
57 19 0 37.12108793372073 12.3045057305048 15.20015039548267
58 19 1 38.03174083249787 12.428816343869642 15.52966720028466
59 19 0 38.45139102102739 13.20451935336068 15.11816100975402
60 20 0 12.793167938457772 43.761763168845526 31.02039704191627
61 20 1 13.526181607948674 44.311641216710555 31.340796508485145
62 20 0 14.294254721670656 43.76089496044966 31.656770491538968
63 21 0 10.111663313977823 43.5415906693559 33.315652666078925
64 21 1 10.462549222196003 43.78161243676256 34.180771598536275
65 21 0 11.086339912914534 43.04298946795919 34.16253670502354
66 22 0 5.312219571799698 26.884999927607165 45.013907528127994
67 22 1 4.881111380883602 26.720480985118527 45.95760217570216
68 22 0 5.51265762346054 26.139136528027137 45.3632934506051
69 23 0 45.65798014372996 11.968222785594843 34.421116550030504
70 23 1 46.072174284590396 11.17733541007307 34.049593556938746
71 23 0 45.315424906989215 10.5739940063749 34.00867883432672
72 24 0 37.81174245916624 30.61139090535009 41.326190594608526
73 24 1 38.445445541339055 31.33878072460947 41.30691693393838
74 24 0 38.139233219736575 31.780621971317665 40.500348321060244
75 25 0 46.128837030421785 35.429804606814294 11.638701597785829
76 25 1 45.34861343305128 35.8748234293026 11.99564865369858
77 25 0 44.50270454692029 35.533886720526795 11.646857115336472
78 26 0 23.004301995608458 14.127298541964262 27.818355564320363
79 26 1 23.593498485097715 13.747257851252193 28.491914077272103
80 26 0 24.46232284849864 13.436043349876465 28.183380409117614
81 27 0 25.536937536368878 11.446176206020146 10.230240789200908
82 27 1 25.83725774850736 10.523817864079051 10.250921860603086
83 27 0 25.243977165070646 10.090572895668236 10.90059462895861
84 28 0 8.969991123570702 28.013197268614526 29.77727601112281
85 28 1 8.442483188243584 27.49847295404214 29.145743725473842
86 28 0 9.11743684402936 27.069503371803 28.590335149401987
87 29 0 30.964396985488662 34.84892734959805 16.93972700905978
88 29 1 31.587014048428415 35.15769811293126 16.270121250923257
89 29 0 32.00980384906188 34.29075589507369 16.111313078424597
90 30 0 48.18610323558134 15.116900760120046 43.98820348247145
91 30 1 48.06859393713224 14.888936800971491 44.92069902238969
92 30 0 47.9169772979749 15.806652330507825 45.166872511741396
93 31 0 28.625243749428808 3.9923037590328514 16.981644311238217
94 31 1 29.331898268183224 4.140146310074587 17.6283767673301
95 31 0 29.26581532790528 5.067232683046119 17.937462569521692
96 32 0 9.520423806940157 39.107438609729236 10.381525456646347
97 32 1 8.834483206694113 38.97849982538201 9.717248057629238
98 32 0 9.083299012227277 38.12070906099947 9.342793287389439
99 33 0 43.52747268900991 38.110246162433874 20.75803372506979
100 33 1 43.29463211715476 37.449827006615536 20.086951564074845
101 33 0 42.769170279362044 36.77149331464352 20.562441857110954
102 34 0 1.7569627884285905 34.351665359502285 10.96762387404054
103 34 1 1.0903603121976917 34.70677731597544 10.36580355038366
104 34 0 0.5400947314970024 33.95656941459675 10.619321804980233
105 35 0 37.43742845521765 30.740011944862896 20.669145551022176
106 35 1 38.17841068137726 30.540914880804777 20.08659432962096
107 35 0 37.76641482485308 29.780432258548217 19.6497087102697
108 36 0 36.49045585574634 45.47854047787434 45.857631716874735
109 36 1 36.864367520734696 46.37064404480873 45.79327331836574
110 36 0 36.57347591169542 46.46627647030524 44.86694419213997
111 37 0 14.541706193211407 19.077489987973685 29.738529698459907
112 37 1 14.062554334037003 19.48473313998373 28.996622382487015
113 37 0 14.239357987647717 19.16557792141808 28.094347418315962
114 38 0 6.695930158036318 25.420567901684578 18.086407372065068
115 38 1 6.298629606035595 26.105057626336343 17.5143186343606
116 38 0 6.732867167951207 26.97129225009448 17.62100165701814
117 39 0 23.469166628612683 32.275922380543726 16.11437004322903
118 39 1 24.34010492709528 32.59787138255372 16.372662076312753
119 39 0 24.272503705871152 32.405955900130046 17.31945746733079
120 40 0 21.935766697658543 43.058037522165606 24.501819796898623
121 40 1 22.871608088696817 42.846583947579695 24.36166547006927
122 40 0 23.213075617374866 42.18052782298769 24.98698271448341
123 41 0 31.77232669323358 26.759404586936917 14.41420241048367
124 41 1 31.08858354376844 26.15525767758286 14.744054218343926
125 41 0 30.756693146130463 26.688332278952544 15.48756795898897
126 42 0 23.45245265146963 46.220131347285054 30.698641055220076
127 42 1 23.748418317529087 47.02735796553228 30.25654136779783
128 42 0 24.634223227933354 47.20357734739143 30.60015830491617
129 43 0 4.761624309749661 21.25623126052043 15.32733486539688
130 43 1 5.369574671251045 20.523131054479016 15.13640090088929
131 43 0 6.008692935727371 20.27716771773553 15.842470450553751
132 44 0 9.692020615768607 21.259420652881648 42.85832284643797
133 44 1 9.49685040180074 21.406364758203797 43.805508820287265
134 44 0 9.300022699544588 22.34275041839821 43.98031698668879
135 45 0 29.475439493931283 4.178842323000898 2.4023416220797467
136 45 1 29.963427007170317 4.081522419559339 1.579348699144589
137 45 0 30.013707321449925 5.00831469933573 1.306123931963826
138 46 0 4.597526599654665 8.76353165198086 28.64107129973305
139 46 1 4.760596114191865 8.870764155545965 29.598150220042506
140 46 0 5.61218374909432 9.363683223678425 29.814558038787645
141 47 0 43.58857712956277 7.203476921906648 38.765717811020814
142 47 1 44.1725072356222 6.421748965156282 38.60876726821244
143 47 0 43.500031815280195 5.855749785251508 38.217372973225956
144 48 0 4.19103316667819 18.33854930549704 4.703328314224224
145 48 1 4.314677341989805 17.709711085508733 3.9799357990174062
146 48 0 5.262047652811323 17.539024090176785 4.0917828282898725
147 49 0 15.740235337237335 21.097164403738525 38.286101881787054
148 49 1 15.462790931590972 20.76945773331712 39.159290754712984
149 49 0 16.103099883238713 21.246568998915908 39.710955830251464
150 50 0 8.485820462935846 46.7030935904819 12.851943316809013
151 50 1 8.144094808992298 45.917504765313396 13.29577820380329
152 50 0 8.874131301052232 45.47417264250841 13.779109768246554
153 51 0 20.146999113506194 34.82091278016329 12.499652272967214
154 51 1 19.36341078873189 35.36521873048857 12.30903153814708
155 51 0 18.57493629905393 34.82260932670631 12.450082348330653
156 52 0 46.65896637823053 30.173257354045745 41.35414080289687
157 52 1 46.84219712410725 30.919793271601726 41.946355576256444
158 52 0 46.90402426384196 31.734942011711038 41.43306871386327
159 53 0 7.607990883684375 16.83182002169294 9.741436208192242
160 53 1 6.9311707779922065 16.13110659781084 9.647651187411768
161 53 0 7.130289781540327 15.481748053047628 10.338607240401975
162 54 0 17.05932092083268 30.86908452512366 31.256425873400634
163 54 1 17.23150689110935 30.654099750718096 30.309619916176942
164 54 0 18.080000193960085 29.980324135169628 30.22145176401725
165 55 0 2.2620425317002297 38.90016774959923 22.262610281178855
166 55 1 2.0409641936128415 39.558520190977845 22.94268581220695
167 55 0 2.714734269268167 39.117485954936775 23.4852420280399
168 56 0 6.215477788470729 15.128177711454576 23.62781920286018
169 56 1 5.879474222094491 14.254830659619817 23.36751895917536
170 56 0 5.591608116530179 13.879233778641026 24.205110569133918
171 57 0 43.43948111242785 27.048068589553104 37.47343444690312
172 57 1 44.39973033239148 27.07508568300347 37.75932859573753
173 57 0 43.74280072298106 26.850579913750668 36.496439131560095
174 58 0 22.800926018908033 4.749735605718623 35.09179727030763
175 58 1 22.72495487397781 3.7572831792303707 35.29954959778134
176 58 0 22.079500061074537 4.466532453569531 35.60962924486502
177 59 0 12.083257487337237 7.885876547070807 26.927178280485254
178 59 1 12.04312336234343 8.058095076748149 27.920691459491444
179 59 0 12.639038256599198 8.695640885128224 28.387556279639995
180 60 0 30.912687227850363 30.154685405777343 8.884319536805718
181 60 1 33.796122338455945 20.213060476173634 11.66930961707625
182 60 0 30.727327745114447 29.098479735456397 9.115020179039085
183 61 0 21.42758304726778 27.241545579076877 31.528254909808783
184 61 1 21.32973901849813 26.691693626736626 32.323667654187176
185 61 0 20.59496752983129 26.07571141232463 32.17676396334392
186 62 0 9.988735153877295 48.459436529457165 41.87972180308839
187 62 1 9.09450989779142 48.10792189491145 41.94280570308994
188 62 0 9.232507536553934 47.37337371726971 41.33422558988224
189 63 0 44.837903119771276 6.895845946995703 12.095430553901187
190 63 1 44.54399332804758 6.491582047969874 11.260073637125444
191 63 0 43.900735972004966 7.162732916064674 10.974847758880477
192 64 0 42.78333533756494 10.17876841303483 30.834228069229802
193 64 1 42.95693711308992 9.536267102131221 31.54656667447504
194 64 0 42.12332422311341 9.149462934435416 31.85790258258562
195 65 0 6.951458173235567 39.908660269246674 33.46077726221343
196 65 1 7.595720944055729 40.331996104614916 34.0489557555674
197 65 0 8.426834784022807 39.7972200475073 33.80512946148466
198 66 0 23.726013448758106 21.19153452177812 45.078315059700074
199 66 1 23.246152499631886 20.714263319418972 45.80624590399595
200 66 0 22.404641752754394 20.319386918236933 45.517440444105986
201 67 0 5.348746412326933 6.548318757882289 45.18559468898781
202 67 1 5.585311453270466 5.840568172080881 45.82540925793425
203 67 0 6.272810738731373 5.833058833765359 45.11677328875084
204 68 0 20.907103010014442 29.539927639172593 28.00037138116519
205 68 1 20.64009165325151 30.458945868542166 27.799592908645668
206 68 0 20.010266587517314 30.871184908351914 28.418229203331514
207 69 0 45.690117403361036 41.83810819000349 37.215792959574614
208 69 1 45.303924824881214 42.56896832880303 36.695368008065074
209 69 0 44.25501942764332 42.56045151619015 36.610123703177145
210 70 0 22.977761371148603 35.81023348774307 45.75083512949122
211 70 1 23.878749357014847 35.732198595917396 46.084832916110166
212 70 0 23.939932930311496 34.803907569816474 45.82273275704447
213 71 0 46.66575421858349 22.593378284396266 21.761093146289827
214 71 1 46.47066647649838 22.034008159971034 20.995571783934736
215 71 0 45.50186221699817 22.098418489089582 20.973802443532332
216 72 0 30.952184989736715 11.572711280253381 10.946392971176614
217 72 1 30.56893993351116 11.198692831057249 10.148250305271981
218 72 0 30.99226603839699 10.343345894617624 10.26100315412423
219 73 0 19.656024463245984 40.52792824461129 9.941769612599447
220 73 1 19.928761160068404 40.54038712163894 9.009622247424659
221 73 0 19.844961682572784 39.59761900418806 8.833842019480855
222 74 0 35.65648918743654 14.879920610879573 3.856073491350427
223 74 1 36.13385161791835 13.812919055033687 3.585597092499354
224 74 0 35.28126417596758 14.56760964459761 3.943094392725255
225 75 0 8.31509497914901 20.72611518861457 21.606809588706692
226 75 1 7.566010929587669 20.112144330536772 21.52128569132687
227 75 0 7.733646000424819 19.322947052547214 22.06122526478235
228 76 0 9.145306723977214 14.500335324762343 18.78489346561
229 76 1 9.056351097227152 13.50101497407947 18.854104221999282
230 76 0 9.988655084335827 13.780928943706709 18.594227456952897
231 77 0 11.688624069600401 4.229331584981467 24.62537922785371
232 77 1 11.894688182767874 3.2893173094457686 24.684368268824432
233 77 0 12.80077764637044 3.307521155734223 24.34278991838254
234 78 0 5.687451549606074 12.180648263912543 5.302068448282372
235 78 1 5.965311109912693 12.845246540834912 4.652719578992629
236 78 0 5.79257847816493 13.774068550733004 4.895982367615512
237 79 0 10.153565926069133 12.81325758608516 22.370246952419226
238 79 1 9.79548321316265 11.957857186148322 22.64999519731643
239 79 0 10.302091925522314 11.776331515674926 23.451559241936707
240 80 0 42.5087376791251 21.178763012126428 31.405695078431002
241 80 1 41.911629461223306 14.454153998879933 5.44084927840553
242 80 0 44.40535809880391 23.876961277805556 32.524920478134035
243 81 0 25.766617332689883 11.331335251549733 34.57715935729135
244 81 1 25.786219893297794 10.449903189404958 35.07474618141059
245 81 0 26.11907043655655 9.79909834327954 34.4497451157593
246 82 0 43.48055950091893 2.6021371178058463 10.041010135591035
247 82 1 44.20097137870874 3.1343778083693823 10.423949262338288
248 82 0 43.80541213916604 4.057862956085369 10.616349366182824
249 83 0 21.046498334689666 19.399129464830697 5.428740526281065
250 83 1 20.951738355902563 19.014188360045694 4.431419292551494
251 83 0 20.064113496608545 18.620468565958095 4.651701118944334
252 84 0 16.52685625975758 38.468695690956054 23.041605060361977
253 84 1 16.584507584680534 39.25204599831523 23.616677735890185
254 84 0 16.711457657092684 38.851168898738024 24.488690114147246
255 85 0 45.908976902838425 38.991421015436416 30.99448680474597
256 85 1 45.54275390033926 38.265158843154175 31.525797058554048
257 85 0 44.91247305273864 37.70893992405698 31.02379161151292
258 86 0 25.553683683674375 36.109226453603675 40.63851360102605
259 86 1 24.913476685882245 36.6449198279543 41.14167662750367
260 86 0 24.090012804498723 36.14828926818106 41.276050131759455
261 87 0 16.951043748524654 5.108866959396361 19.627329644724167
262 87 1 16.066884245694524 5.170158347265471 20.028856738973744
263 87 0 15.618281167014388 5.9988346005071636 19.78757338161629
264 88 0 43.587377925179275 18.770225407692035 14.17255944138145
265 88 1 43.86597243883769 19.159652186744495 13.331431237072078
266 88 0 43.05797777406318 19.378190044105406 12.837285350261308
267 89 0 39.66671990581755 34.122340546047035 44.91978332859933
268 89 1 39.40742551596982 34.75615200206036 45.61695661793754
269 89 0 38.564063456971915 35.202121450604906 45.42441362043494
270 90 0 39.76155120131543 8.962645445667606 14.173593559319269
271 90 1 39.5475159159256 8.699293257994846 13.003497193545893
272 90 0 38.60129424724592 8.490446703852886 12.879041674581519
273 91 0 17.079932561729922 8.084075876045407 10.179908451410101
274 91 1 16.889425054259213 7.7774981725303185 11.090118451377558
275 91 0 16.837502896472596 8.55930086261375 11.759159749992387
276 92 0 10.484889800068256 32.22585277891009 32.357649352980836
277 92 1 9.758325656476927 32.86012452491143 32.62000248970199
278 92 0 9.30870318006385 32.65270691876132 33.47636241134966
279 93 0 20.190715796325428 9.613069078510229 10.239818693520716
280 93 1 19.982590200058198 9.539888744038164 9.305983380426532
281 93 0 19.007836633564576 10.02070549437488 9.357210441940676
282 94 0 25.333754758084506 42.04929252299138 35.72754080220184
283 94 1 24.966704365966763 42.69467624001361 36.35834931986271
284 94 0 24.095803571993418 42.435166263119115 36.70896959832974
285 95 0 11.05318446793837 16.429720404034164 43.60992835558539
286 95 1 10.717157620692934 17.25149782837611 43.98204051498616
287 95 0 11.4194374955968 17.737901453815606 43.527368534004076
288 96 0 15.923735494855771 42.45508058629872 23.047436077252915
289 96 1 15.394208666089018 41.95349318458766 23.689203814121303
290 96 0 15.081982519566862 41.11085736932189 23.287002447233803
291 97 0 30.744704083067763 3.0392929944641582 6.697994248367545
292 97 1 31.406676732573786 3.032583572050559 5.989661064521793
293 97 0 31.75419042494771 3.911250440045314 6.2147688657126725
294 98 0 18.237043910833854 38.903974855216944 36.28101635132982
295 98 1 17.277428796999473 38.80674880671152 36.18417512471695
296 98 0 16.91004832753809 39.110882331717185 35.33843162082983
297 99 0 30.37981532395289 23.844993920240995 38.83118895857153
298 99 1 31.32218820628678 23.908146982097293 39.01532911674651
299 99 0 31.732132050493146 24.13734568525314 38.16576639544979
300 100 0 6.094722145058645 40.63210657383475 41.64725436967101
301 100 1 5.2029173354169735 40.8710419900718 41.953592221501324
302 100 0 4.712888038512586 40.385800245503795 41.27411301789057
303 101 0 39.71615443774755 11.208929256082405 4.04887915125724
304 101 1 40.46117691349983 10.581042878309328 4.13268347231614
305 101 0 40.85848062463301 10.711529301437528 5.017492973738704
306 102 0 27.189707066430326 24.16727786286784 43.40260549804783
307 102 1 26.609532491472105 24.72350926015794 43.943152718154124
308 102 0 26.652386316740472 25.64590141162857 43.648055951661085
309 103 0 29.585531827338247 34.81479727057463 15.236511669831957
310 103 1 29.373312327559766 35.701443123849835 15.67038031000517
311 103 0 29.524243573142776 34.84394202534831 16.195973477285154
312 104 0 38.129217244817205 11.61481642397402 9.771039042553284
313 104 1 38.28445471158407 12.57770010717706 9.55589810372615
314 104 0 37.62327716041092 12.530145755016303 10.286834902375118
315 105 0 34.9992841666593 38.715860362285596 11.621877812097805
316 105 1 35.94351403495216 38.728663027482646 11.395347997049756
317 105 0 36.347155107453716 37.845202836470925 11.477078366540937
318 106 0 23.975755028685562 39.70375610261087 41.24356606500088
319 106 1 24.344838885876765 40.597242798559755 41.23121564596306
320 106 0 24.179432867447794 40.79002407389871 40.29672059750703
321 107 0 26.4020467355131 34.122186240645405 6.311004120972603
322 107 1 27.110150454235484 34.14443907944793 5.65155873997361
323 107 0 27.56840903475536 34.98400198385816 5.83429820926722
324 108 0 24.22546502635286 11.06062208149053 15.18850029510725
325 108 1 23.789533524745153 10.261358376345619 14.843697006758884
326 108 0 22.968967041887 10.793970505338974 14.898068500362706
327 109 0 44.40017613612406 28.59411337585816 28.617854344608272
328 109 1 46.64624183937043 33.15238849248497 29.10403610971652
329 109 0 44.38212514299136 25.19699490647135 38.262926583404216
330 110 0 22.019171146699303 35.13388705506532 4.035416792192198
331 110 1 22.73714199925788 35.70195975884256 3.700453545780978
332 110 0 22.936446062806922 36.4692104817729 4.260027151334861
