ITEM: TIMESTEP
140
ITEM: NUMBER OF ATOMS
333
ITEM: BOX BOUNDS pp pp pp
0 50.0
0 50.0
0 50.0
ITEM: ATOMS id mol type x y z
0 0 0 27.14095548102764 23.86860024416293 32.365497363252274
1 0 1 26.95694347113378 23.226675900099792 33.057399088901875
2 0 0 26.717775598498363 23.774042220881018 33.81639776201099
3 1 0 32.99518415736108 43.885886046480984 9.25080137580784
4 1 1 28.262943299937426 43.16447839140528 2.6200146079858073
5 1 0 27.219029144608115 42.89690235856577 4.595048405342912
6 2 0 38.95812340402663 25.150554649941952 37.50786219892624
7 2 1 38.23041227188537 24.51128787802471 37.537184952776975
8 2 0 37.53387892726561 24.71352558388092 36.88438587015937
9 3 0 14.43549960677641 33.74042853610171 22.43472599581873
10 3 1 14.42648958620349 34.479453531604 23.058280985480575
11 3 0 14.796080972004338 34.03447606767283 23.832078349244302
12 4 0 33.81712793141552 18.454839431731767 24.60474328813857
13 4 1 33.94424171339729 17.876397516918118 23.837854800005804
14 4 0 34.023926593435085 16.964301516272805 24.1473251319317
15 5 0 16.586571685320465 5.193852604541203 38.50851417225881
16 5 1 16.137610312977138 5.257887354280921 39.36824256463693
17 5 0 15.974971575113464 6.188686899792204 39.101525541738376
18 6 0 44.37158169024116 39.706795284896955 8.29284566897912
19 6 1 44.687221451557576 39.584542865360625 9.207080289751097
20 6 0 43.87003999867286 39.51208648571103 9.770273127848832
21 7 0 36.539695520716464 7.089493432380108 39.06058155284494
22 7 1 37.19414832653101 7.549124833613126 39.602820075267054
23 7 0 36.86285982575719 8.459091140795655 39.518615649040825
24 8 0 3.734261262535321 15.607885348525885 10.433099771188536
25 8 1 3.7175672200049035 15.176854192122013 9.549036299089193
26 8 0 4.341034017337796 14.436554986039601 9.510909214091615
27 9 0 10.714181997975897 18.201395214625933 13.927702921838103
28 9 1 10.002780102499312 18.809621430842594 13.67434644018088
29 9 0 9.833767350526685 19.106006782974383 14.581354342696569
30 10 0 32.45473127606934 16.33384356872556 10.615415860712314
31 10 1 33.43064832959157 16.420372753001686 10.295832907804709
32 10 0 33.790629095075744 17.32274997128589 10.097091408511401
33 11 0 33.39307110395155 46.188477740432916 13.16705971328925
34 11 1 34.3302611527181 46.33390727469367 13.36678569121862
35 11 0 34.52146287426953 45.71289793360173 14.08064561631954
36 12 0 40.731272916807754 37.89152621284851 11.062754252266537
37 12 1 41.69780126004521 37.93471543809522 11.148261565453447
38 12 0 41.91780095942466 37.45583287077525 11.964404044660995
39 13 0 35.41268252025863 26.78278516908075 45.88407505216247
40 13 1 35.65662293250802 25.88932776225468 46.159292634644636
41 13 0 35.54958692456639 25.327623903144048 45.38249573428243
42 14 0 12.598445848987105 29.11949263474721 23.03687501061806
43 14 1 13.353395595300352 29.189534321898204 22.445164276840824
44 14 0 13.540866201712944 28.251653362597676 22.36092110162632
45 15 0 31.416334403584724 23.626039691878955 41.91653808172099
46 15 1 31.56963422649347 23.05832098886213 42.725912403616725
47 15 0 30.772518978282346 22.72871071892477 43.17880133913053
48 16 0 43.98067747301335 35.96422891100843 44.33782535853124
49 16 1 43.545947453358345 36.10753789145634 45.1888970766353
50 16 0 42.65863083198767 36.31161883459807 44.85332580362555
51 17 0 44.312107110248206 22.57255605189323 25.39545076026216
52 17 1 44.52100927937876 23.267812059101907 24.755636792857658
53 17 0 43.671047266152804 23.692215426136542 24.54635592463499
54 18 0 35.1780621832786 7.431547217504556 26.1147320441752
55 18 1 34.711367298775265 6.630193278387716 25.828718920429715
56 18 0 35.30802559833432 6.16413797226134 25.225322487426762
57 19 0 37.12326730538175 12.305682724689435 15.200252236792718
58 19 1 38.0317079493354 12.42882384784934 15.529657349121521
59 19 0 38.449701584532676 13.20330952239894 15.118320300501368
60 20 0 12.79510077452581 43.7612090463543 31.021199262936562
61 20 1 13.526366024894623 44.311582091638606 31.340862115438604
62 20 0 14.28951511245385 43.76243149830946 31.654785458080628
63 21 0 10.10419444868549 43.55095447233838 33.316567014594234
64 21 1 10.46278985288898 43.78079011745608 34.18005169543982
65 21 0 11.089909148941418 43.04687634956645 34.173274315920196
66 22 0 5.290984669691739 26.914629694679718 45.024226934897655
67 22 1 4.882919188750871 26.719805843619568 45.95495301923847
68 22 0 5.504960432127891 26.120316827716227 45.39536410048438
69 23 0 45.66330056436728 11.970211921052796 34.42061400707375
70 23 1 46.07158975882058 11.177423247564555 34.049762076391815
71 23 0 45.31959063872124 10.570676717418348 34.006580060141104
72 24 0 37.81511364054013 30.609338443671916 41.33217832898985
73 24 1 38.444894496142574 31.338634740283762 41.30643081611791
74 24 0 38.14466298946798 31.78499137277076 40.502098941120934
75 25 0 46.1264092198228 35.42840014447142 11.637322572762065
76 25 1 45.348562746634336 35.87497318026794 11.995795406707174
77 25 0 44.50612431339399 35.53270658749668 11.645990277157086
78 26 0 23.008531596121074 14.125901061810106 27.816239369056316
79 26 1 23.59339977844592 13.74722961547709 28.4922814705717
80 26 0 24.45967097516968 13.4378949614829 28.179611703603324
81 27 0 25.539755167349245 11.445658220566965 10.227942319326793
82 27 1 25.836872698074558 10.523954248358649 10.251208963685151
83 27 0 25.247277857104084 10.088903665694229 10.89822653193908
84 28 0 8.965757495899446 28.013838560028425 29.77819102985283
85 28 1 8.44301181054925 27.498496057516128 29.14575976668223
86 28 0 9.113201560008548 27.068475660806808 28.58915749943026
87 29 0 30.961364309795325 34.85736298786169 16.940155513046218
88 29 1 31.581958403325334 35.158019983069615 16.269087863102143
89 29 0 32.01391103158326 34.29665476810966 16.105826747469816
90 30 0 48.18773871191986 15.10568530872585 43.98658752637735
91 30 1 48.068573002268465 14.889846408580828 44.92011521518773
92 30 0 47.91567764819381 15.80331454619097 45.17783078800674
93 31 0 28.626440719737182 3.991441445616054 16.982302812993808
94 31 1 29.331759154031808 4.140366620128528 17.6283476641339
95 31 0 29.26684541917191 5.064564277105684 17.93727266921844
96 32 0 9.518034114443413 39.11198423378739 10.38260941819237
97 32 1 8.834902442987463 38.978141981572215 9.71735683076712
98 32 0 9.078982550764135 38.12188489999387 9.339965085575118
99 33 0 43.52851643364758 38.11084300972489 20.75525005509322
100 33 1 43.2944882233606 37.449752996826504 20.087355981559867
101 33 0 42.77043130567162 36.77208486167294 20.558761300945033
102 34 0 1.7657237592073842 34.363439483110085 10.963709927071157
103 34 1 1.0904820811904752 34.705707627037214 10.366636112080112
104 34 0 0.5293820230364213 33.961909079563796 10.609914256870283
105 35 0 37.442241267775046 30.74678536952861 20.672406358034277
106 35 1 38.17762764800294 30.54050297474244 20.086666892407663
107 35 0 37.77413125717127 29.780245606569036 19.645289890529053
108 36 0 36.49452103464641 45.47894470369631 45.86842482619093
109 36 1 36.863792470688736 46.36998206212865 45.792494565745166
110 36 0 36.57861130131637 46.47646542902913 44.868611675133074
111 37 0 14.543774573624479 19.07452640230297 29.73333715838436
112 37 1 14.06219412403759 19.485131225492967 28.996704921092103
113 37 0 14.243054345422411 19.16217063788234 28.098220645587077
114 38 0 6.696166066027623 25.423340440487053 18.08572625212754
115 38 1 6.298601206217491 26.1050415029521 17.5142996977668
116 38 0 6.733084489287369 26.96881370816821 17.621990636718426
117 39 0 23.471039113690267 32.27799606939998 16.106921951318927
118 39 1 24.339528438081736 32.59754830731457 16.373124165863867
119 39 0 24.27982846805713 32.409026935150415 17.319524350837746
120 40 0 21.93688897572598 43.05615089362758 24.50352787357632
121 40 1 22.87172256739902 42.84662215078223 24.36157484768025
122 40 0 23.210138541151107 42.18180515018765 24.986717609065828
123 41 0 31.77298768303925 26.754107136165903 14.409731074459854
124 41 1 31.088784749003114 26.15595417351016 14.74432323234604
125 41 0 30.752808983044172 26.682488576485472 15.487739115105914
126 42 0 23.450515508426587 46.22092540209174 30.69701203937742
127 42 1 23.7485728269186 47.027188771247566 30.256750682201115
128 42 0 24.633690382415427 47.20550296055436 30.598439787362278
129 43 0 4.764622067387705 21.25560643520616 15.331562482667456
130 43 1 5.369629064295469 20.52290029802155 15.136105764169619
131 43 0 6.004743646584255 20.281499887670325 15.842970827237009
132 44 0 9.691381231552096 21.26079786032607 42.860535183866276
133 44 1 9.496857178977685 21.406376031112966 43.805452074142686
134 44 0 9.300504290650816 22.341349338797563 43.97900791532531
135 45 0 29.47571022180016 4.172422447667567 2.403158173849562
136 45 1 29.963208360091613 4.0820880481701245 1.5796026956861784
137 45 0 30.01689914914275 5.005707654642207 1.3011355793614239
138 46 0 4.6003910788016675 8.765202854377568 28.642735539975376
139 46 1 4.760738460303571 8.870848453646456 29.59830475500597
140 46 0 5.607029751848376 9.360660582093047 29.810429642633796
141 47 0 43.59720667757635 7.204444105149821 38.76828399040932
142 47 1 44.17159775377515 6.422072126671217 38.608663823066614
143 47 0 43.5059623625086 5.849596383833494 38.21647608265155
144 48 0 4.184238793867501 18.33859942119457 4.7010953109359574
145 48 1 4.315180310358794 17.709979577468374 3.9804229863281466
146 48 0 5.260764017380923 17.534765990691916 4.0861649128741995
147 49 0 15.73482396647891 21.092782152211576 38.284657859460864
148 49 1 15.463356265463899 20.76995511206744 39.15907416674923
149 49 0 16.099475149325617 21.24299525428758 39.715857036199445
150 50 0 8.48554178449344 46.70266859938865 12.852159837781484
151 50 1 8.144252083529318 45.917452981164914 13.295853269503228
152 50 0 8.87189257291541 45.47543297520553 13.777694657989846
153 51 0 20.14607489589039 34.8224634802472 12.499149872405653
154 51 1 19.363448748782623 35.36505089446213 12.309084169495753
155 51 0 18.57523884543741 34.8237256486631 12.449750984489
156 52 0 46.659220250756285 30.174389093073025 41.35483389033022
157 52 1 46.84218693096139 30.919759944883506 41.94630124876786
158 52 0 46.903957049412 31.73434686529567 41.43325486207231
159 53 0 7.605219998721163 16.831241302290994 9.739273205974612
160 53 1 6.9314664238758965 16.131179379695055 9.647883489925
161 53 0 7.12809433833165 15.481082746824566 10.337047904770893
162 54 0 17.06045683090766 30.867912551573188 31.253112710128008
163 54 1 17.232310445128142 30.65346889754904 30.309707697298936
164 54 0 18.065830584515865 29.991613514280644 30.223476097420015
165 55 0 2.251016093898143 38.90762864957134 22.254137620052173
166 55 1 2.0418910013336316 39.55737740009465 22.942536608346895
167 55 0 2.7109300589052356 39.128310122480684 23.496101748377306
168 56 0 6.215978656024541 15.127730640259752 23.6232149429948
169 56 1 5.879512071720219 14.255093235782665 23.36795047693351
170 56 0 5.5903531835461475 13.875533034540794 24.202874631265217
171 57 0 43.06539961257372 26.925743124833065 37.32494691835837
172 57 1 47.328363895098654 12.671106564772913 6.943731602265785
173 57 0 43.41008430192818 26.732594814196087 36.37737318738309
174 58 0 22.828156419264097 4.735735089354189 35.07618132774555
175 58 1 22.724115923608107 3.7599516570814475 35.299674446911865
176 58 0 22.065694741820668 4.4378263535926346 35.62324501553196
177 59 0 12.08938939228866 7.892728660345261 26.933369896407008
178 59 1 12.04265242811505 8.05771571100629 27.920914371535574
179 59 0 12.640454615011336 8.694882102452866 28.377833248122602
180 60 0 31.291000269668604 28.851812761541115 9.249356297951934
181 60 1 33.74764357466736 20.366511746673808 11.625802942247008
182 60 0 31.124692870720274 27.946324705259247 9.446155664190453
183 61 0 21.428088017024667 27.241079262187135 31.529903060871767
184 61 1 21.329639629455475 26.691690652166184 32.32350523058942
185 61 0 20.596065301187824 26.0761909391993 32.17775032006097
186 62 0 9.98630252410274 48.46595046272711 41.88556470933727
187 62 1 9.095202872642844 48.1076590213385 41.942350382048105
188 62 0 9.223854068133681 47.37107271124304 41.33567162152887
189 63 0 44.84144328561586 6.890054097098316 12.094914853913707
190 63 1 44.54378844110629 6.492235069627505 11.260413783935578
191 63 0 43.900527493559345 7.158079612460487 10.969918379041948
192 64 0 42.7832582807134 10.177373384435667 30.835715818574286
193 64 1 42.95687646875615 9.536301714323319 31.546511761498635
194 64 0 42.12424396793226 9.150239716057921 31.857181358829248
195 65 0 6.9476246063595335 39.91315590288034 33.46378480444291
196 65 1 7.596174493570072 40.33124144868944 34.0484015249766
197 65 0 8.423306267358305 39.80468464734757 33.8109854839802
198 66 0 23.72194837677597 21.188679426263132 45.08027110642548
199 66 1 23.246285136231876 20.71435388006649 45.80624688465833
200 66 0 22.406579431069822 20.32098689932586 45.51565883253145
201 67 0 5.330516918221914 6.551358163576278 45.20082546228147
202 67 1 5.585938502055887 5.841486799630762 45.823603296318865
203 67 0 6.2810075609332765 5.8153216547142925 45.13043895910888
204 68 0 20.903803975668627 29.542263316673964 28.003502908936287
205 68 1 20.64023310638949 30.459089316914664 27.799312215870703
206 68 0 20.011467957281646 30.866568722865583 28.41944212165062
207 69 0 45.68553911923421 41.83837409686083 37.21521929375708
208 69 1 45.30339561409756 42.56912619141261 36.695218142584196
209 69 0 44.26806515906426 42.55767194784483 36.61310677266293
210 70 0 22.977913463815764 35.82112600546284 45.754258440447344
211 70 1 23.878080087177196 35.73149656440817 46.08435633964752
212 70 0 23.950472235664094 34.80422436257678 45.82702088387956
213 71 0 46.67146004362271 22.59175827198333 21.759565755315904
214 71 1 46.47023225756199 22.03433757347633 20.995956776275406
215 71 0 45.50318055799911 22.09472314299604 20.969031135068136
216 72 0 30.947329215975795 11.581599815364815 10.944540103276207
217 72 1 30.569526631048735 11.198345706292946 10.148907403794514
218 72 0 30.98781720225655 10.339997005515896 10.252338366754964
219 73 0 19.657405903974443 40.53549425756882 9.940740757233675
220 73 1 19.928530268002863 40.53982970516602 9.010140375619345
221 73 0 19.847272775788383 39.599001283490246 8.82657068299733
222 74 0 35.7036096376574 14.865999986639045 3.839346522912761
223 74 1 36.13091178015475 13.816997313376199 3.586986459197521
224 74 0 35.281109550932186 14.516312607329237 3.937546500402658
225 75 0 8.313810970657489 20.725138089706995 21.60662101766241
226 75 1 7.566110833858226 20.112137307610297 21.521348918271418
227 75 0 7.73333812700896 19.32406187732618 22.060422299284014
228 76 0 9.119850944215736 14.496389478600884 18.791817691443292
229 76 1 9.057891682541237 13.502928435346917 18.85359556081789
230 76 0 9.989455367213706 13.754306865291582 18.595227823339503
231 77 0 11.68243608632917 4.22768690870238 24.62793099215016
232 77 1 11.89510884771183 3.2898408493523927 24.68413394683664
233 77 0 12.80022263571329 3.300744547448692 24.343978474800537
234 78 0 5.686421754461269 12.184565344260134 5.30371195858241
235 78 1 5.965458164534791 12.845199390514958 4.65242389392568
236 78 0 5.7912876873259 13.77080275555704 4.899021929497657
237 79 0 10.150205623138605 12.812308619520593 22.36678165342632
238 79 1 9.795871330364166 11.958162048818638 22.650218272235403
239 79 0 10.299386156684145 11.77227185336827 23.45160304986371
240 80 0 42.42693831287945 20.247226441098164 27.80373616585992
241 80 1 41.93849552851754 14.594403145630105 5.901490377153784
242 80 0 44.05740397632412 22.564660839133825 28.756645743997076
243 81 0 25.76602205028962 11.32583440739144 34.58250209045344
244 81 1 25.786271016227868 10.450345437381007 35.074308279504066
245 81 0 26.118854191012133 9.79752835236183 34.45141494311727
246 82 0 43.48322890658846 2.601559995970699 10.0415851151069
247 82 1 44.20048596090413 3.134882337768113 10.423976904178055
248 82 0 43.81050486793561 4.050334040378078 10.615322864496372
249 83 0 21.054149942985482 19.397296857280324 5.411281921031351
250 83 1 20.951034939932775 19.014438618198874 4.433267239860882
251 83 0 20.067716062312005 18.61829890464627 4.639590683291567
252 84 0 16.526362647182705 38.473081031398415 23.038708762600937
253 84 1 16.584441642728326 39.25168218822394 23.616792461456114
254 84 0 16.71149536499182 38.85614702657118 24.489858458112494
255 85 0 45.90722536083077 38.98962367784869 30.99360603851523
256 85 1 45.54273914976673 38.265102943932575 31.525876999170293
257 85 0 44.914454413770244 37.71165657644626 31.023396415939043
258 86 0 25.552017750072014 36.10988057599923 40.6395033983446
259 86 1 24.91349439106622 36.644847523860385 41.14164054677701
260 86 0 24.09144818378575 36.14857579789605 41.27556485729931
261 87 0 16.949271686573514 5.1103125889449 19.62739631625316
262 87 1 16.06687277272977 5.170132452852012 20.028876461585813
263 87 0 15.620250996216242 5.997804115220737 19.787177486811924
264 88 0 43.58920609951548 18.770436942494584 14.172141116012945
265 88 1 43.86572115724529 19.159626067931104 13.331482833829902
266 88 0 43.060175598366065 19.378400718899712 12.836877541007258
267 89 0 39.664340284316225 34.12433966010211 44.92037300343151
268 89 1 39.407478867604915 34.756144656126416 45.61701562566712
269 89 0 38.565436403936005 35.200218951807955 45.422937308880776
270 90 0 39.75485528421281 8.954577847557468 14.137918198967201
271 90 1 39.547795910410905 8.699756187252243 13.005692368226587
272 90 0 38.60352530640829 8.490985722426748 12.87959534159778
273 91 0 17.079447525252842 8.084866468991144 10.182917434994978
274 91 1 16.88939371231052 7.777854167190224 11.09041475818304
275 91 0 16.83829807125414 8.552704252265869 11.751508782470735
276 92 0 10.480261104061976 32.2275135795703 32.36207462062294
277 92 1 9.758364925432144 32.86014879322445 32.61992185496569
278 92 0 9.312701437764154 32.65066796909406 33.473239902098086
279 93 0 20.19842807125299 9.609122549254357 10.238614738407053
280 93 1 19.981139094276838 9.54070242052933 9.306527610953408
281 93 0 19.023486093058743 10.0117323765006 9.349584192742034
282 94 0 25.33105778697084 42.04916671921782 35.72905973107198
283 94 1 24.966764236794486 42.694781494792444 36.3583771798354
284 94 0 24.09755592603959 42.433637002352945 36.706948868254244
285 95 0 11.043450426168965 16.42317347704092 43.61625944479567
286 95 1 10.718097815514229 17.25122162834719 43.981300080272035
287 95 0 11.414172273274996 17.748700387937877 43.53289688342972
288 96 0 15.922839363073109 42.453971914143374 23.048114283197442
289 96 1 15.394280908479153 41.95315602578586 23.68909321973491
290 96 0 15.083247126724515 41.11388390098172 23.28798336699755
291 97 0 30.742331127830102 3.029931713023068 6.6941841426926665
292 97 1 31.406436931418355 3.033295389692537 5.990407481225002
293 97 0 31.76043524693671 3.9091917994076306 6.206738909319135
294 98 0 18.2360429072838 38.90542553853766 36.27723753932716
295 98 1 17.277229921159318 38.80662218362386 36.18440799677207
296 98 0 16.91423822532629 39.1114625659771 35.3384848993251
297 99 0 30.37947569023317 23.844348930069575 38.833990063144554
298 99 1 31.322085107500516 23.908209779752287 39.014986325264864
299 99 0 31.734109077371254 24.13703051610697 38.16821590429895
300 100 0 6.096489444852088 40.63695510088111 41.65396602194969
301 100 1 5.2032256316941385 40.87054565023552 41.95291812940075
302 100 0 4.706182609295982 40.388888979325856 41.2781934846529
303 101 0 39.71777264448357 11.206930953478643 4.047922022328471
304 101 1 40.46108771889656 10.58123485123504 4.132897397134979
305 101 0 40.85829625536494 10.710282236365455 5.014951248342629
306 102 0 27.18923652701007 24.16844965615298 43.40285067778638
307 102 1 26.60953494354414 24.72352203005492 43.943145174922606
308 102 0 26.65277812328852 25.64458219112864 43.64794034185114
309 103 0 29.58276213588299 34.83532156446695 15.210252432677608
310 103 1 29.378843261925656 35.69750479530986 15.671918332393664
311 103 0 29.518358886826043 34.86696581452982 16.219222329314228
312 104 0 38.1455400389076 11.613995167458205 9.753082542909654
313 104 1 38.28335360335103 12.576232260687394 9.557177339833403
314 104 0 37.624552907211076 12.554474210801983 10.284314512911283
315 105 0 35.00078857440237 38.714373526899806 11.621819414640198
316 105 1 35.943553244690634 38.72868003020806 11.395334435852913
317 105 0 36.344990574189076 37.84642420407125 11.477346081907331
318 106 0 23.977836383412335 39.703910437331984 41.25129373645341
319 106 1 24.34449294209909 40.596809872897836 41.23061552699777
320 106 0 24.18284742322795 40.79700697670487 40.29865063827339
321 107 0 26.40157697586431 34.11880377023999 6.308957430410295
322 107 1 27.110085838547427 34.14479142445396 5.651887956358794
323 107 0 27.569987145138636 34.98171781633081 5.831106273700164
324 108 0 24.23898870765954 11.051429477676752 15.18746248358646
325 108 1 23.789070944020764 10.262805341539883 14.844129760737527
326 108 0 22.962816623048365 10.780012669229997 14.892279199877365
327 109 0 44.662038235052925 29.124929184581582 28.675496171860974
328 109 1 46.585753500032 33.048068119653 29.161954331185285
329 109 0 48.93672027390903 7.03899399033935 30.595499123268155
330 110 0 22.020295046683053 35.137034064556595 4.037307695111721
331 110 1 22.737232333898284 35.701889105291954 3.7002497056376797
332 110 0 22.933804758055427 36.46721408584516 4.261356272655065
