ITEM: TIMESTEP
143
ITEM: NUMBER OF ATOMS
333
ITEM: BOX BOUNDS pp pp pp
0 50.0
0 50.0
0 50.0
ITEM: ATOMS id mol type x y z
0 0 0 27.141655953772464 23.866027538494826 32.36337358190376
1 0 1 26.956920104887338 23.22703082438249 33.05744396273153
2 0 0 26.71745753626511 23.770927641256673 33.81779777298071
3 1 0 32.47587038257675 43.806714605279325 8.523281600723093
4 1 1 28.290975271602658 43.16827846326041 2.6743032494909706
5 1 0 27.289832576637632 42.915276174329854 4.45394679891
6 2 0 38.9566315900905 25.150684489685958 37.506717392273714
7 2 1 38.230372895081736 24.51122436438806 37.53720947249494
8 2 0 37.53600944703373 24.71440237013909 36.88513156183769
9 3 0 14.433224731721173 33.74443376911209 22.431077107619455
10 3 1 14.42667235411967 34.478875389030385 23.058347237346915
11 3 0 14.795425017313057 34.03972270984825 23.83463423016942
12 4 0 33.81723763776828 18.454598588074987 24.603709775981116
13 4 1 33.94423527274545 17.87638170872204 23.83795832360912
14 4 0 34.02391950329449 16.96479581011869 24.146703401129315
15 5 0 16.588978879683182 5.180202666209214 38.51238088930935
16 5 1 16.13785476838133 5.258753069177214 39.36720043241031
17 5 0 15.96864847734767 6.188485622597468 39.114336450315236
18 6 0 44.374033119776065 39.70666251851039 8.293806609554899
19 6 1 44.68679048487001 39.58455481900409 9.207062417796253
20 6 0 43.87462391612096 39.51219786570025 9.76943584680596
21 7 0 36.542732936306614 7.084862247603134 39.06197182948847
22 7 1 37.19366802080057 7.549379843634871 39.602521410792335
23 7 0 36.86749662081623 8.459642836635286 39.52200711751542
24 8 0 3.7348136477230587 15.606076037100166 10.430843008165251
25 8 1 3.7175674760949584 15.176916351522397 9.549124166095064
26 8 0 4.340651974975406 14.43742187524123 9.511808382790992
27 9 0 10.714427498132531 18.199832543585515 13.919170250999187
28 9 1 10.003148383606026 18.809411697711468 13.675117216810756
29 9 0 9.827713121478844 19.110926346685286 14.57755320376316
30 10 0 32.462434751747665 16.33928684093917 10.612449972701203
31 10 1 33.4305347375869 16.420115328443543 10.295889569855513
32 10 0 33.784722328283806 17.32131678138404 10.099103863262552
33 11 0 33.39416491093162 46.19068176072527 13.165188549961686
34 11 1 34.330024656816995 46.333690377082476 13.366922297255647
35 11 0 34.52415227229927 45.71417143175659 14.080333285490674
36 12 0 40.732623550627515 37.8925825114659 11.061249934158218
37 12 1 41.6976044019133 37.93458628665727 11.148445248942794
38 12 0 41.91934648751083 37.45682924170707 11.963034853749507
39 13 0 35.41318201842825 26.782807819648557 45.8859121991289
40 13 1 35.65655653694693 25.88940062854699 46.15909781462158
41 13 0 35.55016791217252 25.326443206763994 45.383800339485866
42 14 0 12.59790892424262 29.126189546701656 23.036852185061573
43 14 1 13.353104741800625 29.189032351438303 22.44542128834705
44 14 0 13.546050004491933 28.252934736498744 22.35680525032112
45 15 0 31.413484514846747 23.622893020535997 41.92097598415919
46 15 1 31.569867965874604 23.0583663683128 42.72585531676379
47 15 0 30.771672529398842 22.7310599240919 43.175447982358065
48 16 0 43.98606317246779 35.96306177741282 44.34151364185768
49 16 1 43.545686831290446 36.10758002946457 45.18825797627216
50 16 0 42.65755014374557 36.31216922548873 44.859857194745345
51 17 0 44.31447388369462 22.572566461561312 25.395003776184176
52 17 1 44.52071328624511 23.267766390917895 24.75573944809772
53 17 0 43.67336028810001 23.692984838066458 24.5452634626193
54 18 0 35.176204158886435 7.431014747735485 26.115321352787603
55 18 1 34.71158818899566 6.630274877022327 25.82866085707997
56 18 0 35.30634942506831 6.163363604947555 25.225662993313826
57 19 0 37.12487332723075 12.30659900139286 15.200289616814828
58 19 1 38.03168667047705 12.428826200328357 15.529655224030392
59 19 0 38.44840598011087 13.202429855496955 15.118405002064645
60 20 0 12.796584807563908 43.76073169624871 31.021813677966506
61 20 1 13.526500810523066 44.31154893449528 31.34090885071921
62 20 0 14.285997199226848 43.76347069050767 31.65331000391668
63 21 0 10.098335185466304 43.55830870825222 33.3172955822229
64 21 1 10.462977583061917 43.78014542206047 34.179486180870136
65 21 0 11.09272249157368 43.04991720927293 34.18170784769566
66 22 0 5.273911882561107 26.9386948513892 45.03229087757234
67 22 1 4.884366987246597 26.7192623259952 45.9528341205328
68 22 0 5.4988623233865 26.104954601494036 45.4212055832693
69 23 0 45.66744902872277 11.971819878557003 34.42024226457494
70 23 1 46.07113683847637 11.177492349239662 34.04989344564243
71 23 0 45.32280285629464 10.568029018197155 34.00493085906616
72 24 0 37.81773441328944 30.60770139645952 41.33687572113369
73 24 1 38.44446512692447 31.338519472976405 41.30605300795336
74 24 0 38.148901515081185 31.788454743630993 40.503411272131956
75 25 0 46.124513556826486 35.427289572590524 11.63623351644347
76 25 1 45.34852814700828 35.87509284722869 11.995913814375331
77 25 0 44.50872777019364 35.53174183518816 11.645271875626193
78 26 0 23.011830025137442 14.124819297522823 27.814546998486374
79 26 1 23.593321040260605 13.747207383743278 28.492573015274147
80 26 0 24.4576310057337 13.439334420700387 28.176633745191864
81 27 0 25.54193918401342 11.445329290870225 10.226138354631782
82 27 1 25.83657845961115 10.524061233518871 10.251426924035806
83 27 0 25.249765506493407 10.087516521339964 10.896480997416997
84 28 0 8.962483293419114 28.014387508905244 29.77896578948681
85 28 1 8.44341802664345 27.49851362599188 29.145773071122683
86 28 0 9.109956377394944 27.067618412321945 28.58816806849725
87 29 0 30.95875576714109 34.863966547428724 16.94064949431338
88 29 1 31.57741561135448 35.15840406948881 16.268104908089793
89 29 0 32.017016434519256 34.30148587621668 16.101521456472494
90 30 0 48.18902583884609 15.096884165191431 43.98529566267264
91 30 1 48.068556134171374 14.890561418981907 44.91965896103126
92 30 0 47.91466112009888 15.800676039834416 45.18642385429856
93 31 0 28.627329307072866 3.990760098824383 16.98277548943843
94 31 1 29.33165403069913 4.140530649260801 17.6283247327042
95 31 0 29.26763986857567 5.0626162550659215 17.93716940814683
96 32 0 9.516182868151402 39.115550590233255 10.38347972232382
97 32 1 8.835228650060563 38.97786523941361 9.717442598160941
98 32 0 9.075615832240643 38.122743102593674 9.337719076467478
99 33 0 43.529352409899424 38.111362526893785 20.753122150439857
100 33 1 43.29438001318522 37.44969916413634 20.087664623026665
101 33 0 42.771328816562324 36.77243026920246 20.55595646043904
102 34 0 1.7725793855995946 34.372705985794674 10.960609057038779
103 34 1 1.090577453566828 34.704863592182576 10.367292676415452
104 34 0 0.5209974832134208 33.96614611766905 10.602509642603884
105 35 0 37.446006961037384 30.752101689177504 20.674972206596003
106 35 1 38.177015324309146 30.54018272997914 20.0867252895921
107 35 0 37.78016335390556 29.78005003516276 19.641792246811455
108 36 0 36.497702736814645 45.4792255253953 45.8769162578103
109 36 1 36.86334276572941 46.36946266554644 45.79188767506481
110 36 0 36.58262473490079 46.48449618180631 44.86983098423104
111 37 0 14.545410469903095 19.072189062862538 29.72927620470023
112 37 1 14.061910150006172 19.485445082841327 28.996770351650135
113 37 0 14.245963235867434 19.159484551609197 28.101236151780537
114 38 0 6.6964012076429285 25.425447634414923 18.085258125895518
115 38 1 6.298572825250452 26.105028347584284 17.51427966186409
116 38 0 6.73330235464515 26.966947609470886 17.622783339035756
117 39 0 23.472486949265768 32.2796148072651 16.101074029061273
118 39 1 24.339077498887196 32.597295969573736 16.373483165828354
119 39 0 24.285573106076814 32.41142478885044 17.319638640190426
120 40 0 21.937727170097837 43.0546763646959 24.504878813166687
121 40 1 22.87181351397112 42.84665573780812 24.361499147347054
122 40 0 23.207859632560282 42.182744012568655 24.986571904038428
123 41 0 31.77356371877933 26.749996815306652 14.406191854872693
124 41 1 31.088941557399032 26.156494552037636 14.744531187147143
125 41 0 30.749720303706347 26.677955738401586 15.487955749746833
126 42 0 23.44898176384262 46.22150145268814 30.695761445710282
127 42 1 23.748691951863044 47.0270586151394 30.25691189354519
128 42 0 24.63331997679121 47.207020116272986 30.597112288682816
129 43 0 4.7669632890251314 21.2551360346088 15.334894715090803
130 43 1 5.36966726266845 20.5227192629991 15.135866805233073
131 43 0 6.0017220013299415 20.28487982642967 15.843466856092858
132 44 0 9.69090359787942 21.261868596426847 42.862145942393916
133 44 1 9.496861749228701 21.40638109258215 43.80541495494718
134 44 0 9.300866714037097 22.34033093748824 43.97798712049706
135 45 0 29.475915843497994 4.167392877653265 2.403808513416885
136 45 1 29.96303693203581 4.082527677931974 1.5798019559116336
137 45 0 30.01940588362502 5.003722854380818 1.297205191227964
138 46 0 4.602647038545819 8.766517701738788 28.643951332178606
139 46 1 4.760830810932922 8.870903516877354 29.598429178858048
140 46 0 5.603285857709675 9.358462124353093 29.80723048250219
141 47 0 43.60386727691945 7.205396422861593 38.77034500582189
142 47 1 44.1708908746709 6.422313745164179 38.60857977553303
143 47 0 43.510618971488604 5.844764863010054 38.21577190105379
144 48 0 4.178901230397566 18.338670731213373 4.699379763487085
145 48 1 4.315570874753222 17.7101894839202 3.9808023376366948
146 48 0 5.25982656023002 17.531411056214463 4.081763193720223
147 49 0 15.73060201363467 21.089374308950315 38.28342828376165
148 49 1 15.463795137222123 20.770341089426637 39.15890700656682
149 49 0 16.09668304632233 21.24022916780219 39.7197542132967
150 50 0 8.485337481807841 46.7023540157001 12.85232061722894
151 50 1 8.144366712011808 45.91741558169249 13.295907800733847
152 50 0 8.870261948748992 45.47635174063014 13.776663427819717
153 51 0 20.145426885254302 34.823621578105474 12.498775971582448
154 51 1 19.36347616289819 35.36492484438699 12.309123686487455
155 51 0 18.575435885240044 34.82456820098511 12.449499908876442
156 52 0 46.6594053087991 30.175222501109925 41.35532993089004
157 52 1 46.84217933618714 30.91973497177301 41.94626197135783
158 52 0 46.903905564163615 31.73390327398707 41.43338208911579
159 53 0 7.603150416909121 16.830895245837453 9.73759052880313
160 53 1 6.931689823879771 16.13123220390683 9.648061681566979
161 53 0 7.126389111503221 15.48051606256399 10.335874847651198
162 54 0 17.06135559628772 30.86700108280427 31.250678227427198
163 54 1 17.232891852637433 30.65301204861744 30.309769869769756
164 54 0 18.05550663198983 29.999844481068045 30.22502739071461
165 55 0 2.242333842218058 38.9135009972653 22.24746223466689
166 55 1 2.042620982607857 39.556477586487276 22.94241957415858
167 55 0 2.7079309890730463 39.1368352488745 23.50464943254058
168 56 0 6.21640470537301 15.12746669916421 23.619629304388468
169 56 1 5.87953932668809 14.25529418785789 23.36828645498916
170 56 0 5.589364565586682 13.872627188868465 24.201139199885336
171 57 0 39.446800246237544 27.549296512981773 36.156966343423036
172 57 1 12.55789196273968 32.50528788898799 28.139624864101464
173 57 0 39.74939741901017 27.37963967687361 35.32405758127105
174 58 0 22.84997701732961 4.7244645394621445 35.063675952634625
175 58 1 22.7234353901992 3.7620997426428158 35.29977833841078
176 58 0 22.054763946040815 4.414718095136769 35.63408609907553
177 59 0 12.094274158789007 7.898115156939188 26.937959158812255
178 59 1 12.042272891561646 8.057412713828054 27.921107036820043
179 59 0 12.641653859510885 8.694363648517166 28.370191433316826
180 60 0 31.56409586938929 27.910710227051393 9.513010643703334
181 60 1 33.71266415265467 20.47724476328799 11.59440839997334
182 60 0 31.411280716150678 27.115850849780173 9.684860626919322
183 61 0 21.42848999333357 27.240762098962 31.531120746417546
184 61 1 21.329564914810838 26.691687946217982 32.32338363244411
185 61 0 20.59686984334008 26.07652184382254 32.1785088476433
186 62 0 9.984403661640078 48.47106178978615 41.89014581966603
187 62 1 9.095745636850031 48.1074535487117 41.941994071235776
188 62 0 9.21706997223885 47.36925488903541 41.33679472238946
189 63 0 44.84425856778346 6.885548334380579 12.094603798632177
190 63 1 44.54362969707037 6.492741039477778 11.260676990110197
191 63 0 43.900297607763285 7.154492735695823 10.966015895136518
192 64 0 42.78317228056768 10.17634762904736 30.83680582913638
193 64 1 42.956833795695594 9.536325771094234 31.546471944471264
194 64 0 42.1249039851515 9.1508256756714 31.856632924816054
195 65 0 6.944563660519657 39.916663777921876 33.466110504556895
196 65 1 7.596507391153266 40.3306642099728 34.047974037589846
197 65 0 8.420950843703588 39.81031572114395 33.815496440094776
198 66 0 23.71885973614709 21.186550537083406 45.0816149081017
199 66 1 23.246384884067638 20.714407811059665 45.80625351778411
200 66 0 22.408044458722113 20.322220925660414 45.514225931846795
201 67 0 5.316096705815706 6.553707119756363 45.21294288493171
202 67 1 5.586434976375389 5.842218656777748 45.822167668492064
203 67 0 6.287483887540129 5.801262804100769 45.141292189568716
204 68 0 20.90123192661525 29.544014200137436 28.00598810236301
205 68 1 20.64034621726274 30.45920605460486 27.79908698623999
206 68 0 20.012374290264717 30.862961788622446 28.420435658964145
207 69 0 45.681920788522355 41.838519604729484 37.21480900045728
208 69 1 45.30302592015299 42.569258399282845 36.69509901866012
209 69 0 44.277598657874044 42.55542138164395 36.61543289989638
210 70 0 22.97803587244341 35.82967564060269 45.756946809019325
211 70 1 23.877554225880015 35.73094656474493 46.08398277204518
212 70 0 23.9587492122081 34.804454945493106 45.83038307369384
213 71 0 46.67595088881159 22.590524196175885 21.75841775248667
214 71 1 46.46989673806291 22.03459327615426 20.99625539269617
215 71 0 45.50412351095103 22.091827935804133 20.96528276843425
216 72 0 30.94351726228486 11.58856150387183 10.943075697316647
217 72 1 30.56998764520593 11.198073038891312 10.149423320546562
218 72 0 30.984323263952014 10.33738583284636 10.245544683683253
219 73 0 19.65910255456932 40.54110534879866 9.94043674102243
220 73 1 19.930862781359828 40.53820978480013 9.013592238087112
221 73 0 19.849084864336014 39.60003088951521 8.820965655366562
222 74 0 35.74207791285929 14.857096449393328 3.8259593227514226
223 74 1 36.12864780537573 13.820137271157336 3.588056081261813
224 74 0 35.27880767789326 14.475006245419555 3.9337816983449514
225 75 0 8.312874292952705 20.724424116650322 21.60648416631561
226 75 1 7.566183704732519 20.11213232970231 21.521395177475558
227 75 0 7.733114342424373 19.324876983434052 22.05983604196682
228 76 0 9.099540405354212 14.49334419700797 18.79733731554096
229 76 1 9.059113332547827 13.504447572484954 18.853191383506587
230 76 0 9.990214249277004 13.733086418533068 18.595992742371124
231 77 0 11.677576988229465 4.226426975272923 24.629930114094215
232 77 1 11.895435097422837 3.290249493835122 24.6839517498355
233 77 0 12.799851205529455 3.295428122617268 24.344886988753434
234 78 0 5.685604696557671 12.187624410586519 5.3050217603051175
235 78 1 5.965575257265917 12.845158586900503 4.652188856743335
236 78 0 5.79025871437299 13.768308749694562 4.9014319633649395
237 79 0 10.147597549815456 12.811628377581785 22.36404356752104
238 79 1 9.796172982242288 11.95839705651195 22.650392651394423
239 79 0 10.297290198747076 11.769080473607335 23.45167694928934
240 80 0 42.369619753361555 19.577493244136353 25.205720568690303
241 80 1 41.95788311848029 14.695607870975646 6.233889644182981
242 80 0 43.804594333866106 21.615211751724317 26.036303863553933
243 81 0 25.765545169077907 11.321893228706177 34.58648710633471
244 81 1 25.78631171621542 10.450668654694448 35.07397805422568
245 81 0 26.11868535446336 9.796302455524433 34.45271879941729
246 82 0 43.48524691531287 2.601059916116837 10.041998685153539
247 82 1 44.20012211113726 3.135252119584361 10.423994826911278
248 82 0 43.81430465839136 4.044888701911497 10.614614584536376
249 83 0 21.060415417586512 19.39626434073747 5.398379574110114
250 83 1 20.950480027554693 19.014618266123556 4.434672102443837
251 83 0 20.070328774588308 18.616458638515468 4.630013619724477
252 84 0 16.525968111433386 38.47645430196788 23.036371601797217
253 84 1 16.584383571787043 39.25141693932441 23.616883495582012
254 84 0 16.711532510467958 38.860038154811114 24.490829621090672
255 85 0 45.90586932484989 38.988256503679224 30.992874500546826
256 85 1 45.5427314124143 38.26506056444276 31.525946805370978
257 85 0 44.91592987713943 37.71372318908896 31.023013461541076
258 86 0 25.5507745748452 36.110331002050756 40.640225763318426
259 86 1 24.9135081735193 36.64479646188264 41.141614916465585
260 86 0 24.09251580752135 36.148758147898526 41.27519054933026
261 87 0 16.947954496500323 5.111447957515466 19.62741193467585
262 87 1 16.0668611873544 5.170107727973014 20.028895636764947
263 87 0 15.621765635571322 5.997064811276922 19.786843460412644
264 88 0 43.59061906416595 18.770579207769874 14.171864017840806
265 88 1 43.86553042768024 19.159605845383673 13.331522996301851
266 88 0 43.06181903445571 19.37858619208641 12.83651185612918
267 89 0 39.66249358215337 34.12583936306918 44.92075223431653
268 89 1 39.407523023196 34.756141189458035 45.61706881487034
269 89 0 38.56644632249929 35.198756616515254 45.421755793862864
270 90 0 39.74991392238178 8.948689854812407 14.111940498918267
271 90 1 39.547999638572485 8.700091173717626 13.00728471749592
272 90 0 38.60521971296927 8.491410104036548 12.88009653329844
273 91 0 17.07908833032754 8.085551707222008 10.185186245036663
274 91 1 16.88936825433102 7.778101635076135 11.090633146139243
275 91 0 16.838901613148415 8.54796577109505 11.74583001667126
276 92 0 10.476817550291447 32.22862459807373 32.36551155395712
277 92 1 9.758386203035197 32.86018429039126 32.61985353863141
278 92 0 9.315777560253602 32.649000740555294 33.47095163438797
279 93 0 20.2044969546605 9.606007757623496 10.237615884148326
280 93 1 19.980059979673488 9.541314219156334 9.306962049511991
281 93 0 19.034805751881436 10.005142823952294 9.343527643316623
282 94 0 25.32896571635544 42.04900848256334 35.73019911273558
283 94 1 24.96681422845377 42.69486970244231 36.35840057122635
284 94 0 24.098859286818392 42.43240859984864 36.70538741997584
285 95 0 11.035794913936542 16.418066492981122 43.62124484457302
286 95 1 10.718836852640758 17.251001441155037 43.980717884439365
287 95 0 11.410040595433252 17.757187903684642 43.537237234605485
288 96 0 15.922170458368054 42.45312723127369 23.048592388855305
289 96 1 15.39434557332804 41.95288581727509 23.689015348156072
290 96 0 15.084180470427611 41.116089727321906 23.288657039573266
291 97 0 30.7404291874242 3.02257394605112 6.691228835533236
292 97 1 31.406249230560054 3.033850804310941 5.990991210903625
293 97 0 31.76537026384771 3.9076366723324036 6.200441951586333
294 98 0 18.235283793021843 38.90656755749375 36.27427314309485
295 98 1 17.277072648924765 38.806521266050034 36.18459308039905
296 98 0 16.9175135076266 39.11193115192442 35.33849127101838
297 99 0 30.379191619559215 23.843843025576696 38.83617821200728
298 99 1 31.32200301744581 23.908257877726157 39.014722097632514
299 99 0 31.7356963930343 24.136804906485143 38.17005613923858
300 100 0 6.097967610158926 40.64074200459322 41.65921056720986
301 100 1 5.203463883330141 40.87015887465942 41.95239284349843
302 100 0 4.70088778229388 40.39128695156485 41.28135919977442
303 101 0 39.71893861905183 11.205454097518633 4.047164059252106
304 101 1 40.46102145317512 10.58137935799592 4.133057358128801
305 101 0 40.85820718014628 10.709327536426393 5.013088292300086
306 102 0 27.188900202691183 24.16934147952316 43.40301122986423
307 102 1 26.60953429985278 24.72353045348088 43.94314263314641
308 102 0 26.653090693993676 25.64360378107778 43.6478284800594
309 103 0 29.580627122296686 34.85175823290585 15.189239344310563
310 103 1 29.383775437241987 35.69423793677172 15.673277106658047
311 103 0 29.513787988658034 34.88523517808388 16.238038658271503
312 104 0 38.15850454615853 11.613254914456473 9.738824320090545
313 104 1 38.28247627126557 12.57507240775891 9.558195827962914
314 104 0 37.625602906358544 12.573786663886978 10.282272621492844
315 105 0 35.0019057583136 38.71319948925636 11.621790064021726
316 105 1 35.94358574672164 38.72869947262466 11.395322101665144
317 105 0 36.34332538645662 37.84729293470896 11.477566247016512
318 106 0 23.979451091284332 39.703988009304155 41.257360101444135
319 106 1 24.344223051600938 40.59647280087751 41.230148387903974
320 106 0 24.185517552103992 40.802501835752075 40.30010606260422
321 107 0 26.4011618181989 34.116150458707324 6.307396741294377
322 107 1 27.11003496632343 34.14506150065476 5.6521422251081095
323 107 0 27.571279850774765 34.98002495448066 5.8286233171108375
324 108 0 24.24965473782197 11.044186879874427 15.186646735456094
325 108 1 23.78870987865215 10.263944158707604 14.844471216564925
326 108 0 22.957903709345803 10.769035096021385 14.8877142185589
327 109 0 44.838275805761 29.506012012023515 28.725986866663867
328 109 1 46.32716689614566 33.05565589523756 29.25325089449798
329 109 0 16.463876465756094 37.938300306686784 42.12190352267243
330 110 0 22.021117337029466 35.13946144334578 4.0388246657847
331 110 1 22.737306376566522 35.70183445987846 3.700085811152007
332 110 0 22.93173641299258 36.46567819644364 4.262426258264584
