ITEM: TIMESTEP
145
ITEM: NUMBER OF ATOMS
333
ITEM: BOX BOUNDS pp pp pp
0 50.0
0 50.0
0 50.0
ITEM: ATOMS id mol type x y z
0 0 0 27.142166599521698 23.864166047227382 32.36182395312192
1 0 1 26.956903558401855 23.227287023212874 33.057475336225224
2 0 0 26.717218273496403 23.768683343879204 33.818840927666876
3 1 0 32.11966116633779 43.75237952104421 8.025200962352713
4 1 1 28.310179124840783 43.17088682425084 2.7113352882466435
5 1 0 27.338781201720973 42.927880357312404 4.359512754091477
6 2 0 38.95556651227717 25.1507998987815 37.50588101543605
7 2 1 38.23034595829483 24.51117546062289 37.53723055540677
8 2 0 37.537514806434004 24.715057433301624 36.88562866556039
9 3 0 14.43157042562028 33.74731983257337 22.4284000318866
10 3 1 14.426804470014709 34.47845753012548 23.058395095880794
11 3 0 14.794959639792417 34.043524473910054 23.836517272081934
12 4 0 33.81731204582975 18.454446579706023 24.602992476434423
13 4 1 33.94423079270444 17.876370386077973 23.838030769452857
14 4 0 34.023916417736054 16.965129379965564 24.146262449848887
15 5 0 16.590732198715905 5.170234828795402 38.515213622893825
16 5 1 16.13803447973648 5.259382035570282 39.366439049634025
17 5 0 15.96401618621857 6.188390170903532 39.123688569629664
18 6 0 44.37579053541945 39.706575085475045 8.294437936429174
19 6 1 44.68648833503826 39.58456426163044 9.207046662486885
20 6 0 43.87780949755331 39.512266124513836 9.768930570613035
21 7 0 36.544921545407206 7.081478743745344 39.06296585829562
22 7 1 37.19332111055965 7.549562525350354 39.602305478895985
23 7 0 36.870850278708836 8.460103954842888 39.52447041733256
24 8 0 3.735221602785005 15.604804028679052 10.429303970480658
25 8 1 3.7175665353807847 15.176960375271193 9.549181532458608
26 8 0 4.340394212328141 14.438029886816299 9.51246705013769
27 9 0 10.714633586126249 18.198671096728432 13.912965077920758
28 9 1 10.003415508686157 18.809259773127618 13.675676046673761
29 9 0 9.823298114004102 19.114519482801718 14.574816029533714
30 10 0 32.46773386568965 16.343278053558645 10.61038684557319
31 10 1 33.43047140519633 16.419919284858345 10.295925542111016
32 10 0 33.780421785112274 17.320384809999332 10.100559108832368
33 11 0 33.39491207629342 46.192276285618966 13.16381833925535
34 11 1 34.32985545309873 46.33353437016922 13.367020893265837
35 11 0 34.52611167194714 45.715078386322446 14.080127332435818
36 12 0 40.73354711740621 37.89334698634287 11.060152507096262
37 12 1 41.6974634362794 37.934494391981424 11.148576120228219
38 12 0 41.92048145359909 37.457524436679776 11.962089130498951
39 13 0 35.4135367385645 26.782853443800168 45.887237143967766
40 13 1 35.656509045233896 25.889452557816504 46.1589581615155
41 13 0 35.550587169312614 25.325572785100768 45.38472898615612
42 14 0 12.597514306246362 29.131054960077286 23.036839217894066
43 14 1 13.352893704633061 29.18866727282005 22.445607786550738
44 14 0 13.549815211070964 28.2538683035367 22.353815604160644
45 15 0 31.411361436917197 23.620701561185562 41.92406571147191
46 15 1 31.570043425785972 23.05839328008723 42.72582270039358
47 15 0 30.77102201229191 22.732765314975847 43.17301299356485
48 16 0 43.98999503237378 35.962208276502956 44.34417161270814
49 16 1 43.545499732943924 36.10761043322863 45.18779551804581
50 16 0 42.65671679983649 36.31258091968002 44.86459393941878
51 17 0 44.31618555593937 22.572548703040898 25.394706006604917
52 17 1 44.52050090426294 23.267730161900484 24.755815591178052
53 17 0 43.674982957435425 23.693573170816936 24.544455352728185
54 18 0 35.17488014259302 7.430671144439654 26.11576458658651
55 18 1 34.711745453324596 6.6303326180609075 25.828619294956297
56 18 0 35.30515724712151 6.162782373263919 25.225885375812073
57 19 0 37.12598516364533 12.30726139749777 15.200293731011573
58 19 1 38.03167358732194 12.4288260325857 15.529656762665732
59 19 0 38.44748005885088 13.20182784965603 15.11844478273403
60 20 0 12.797646232360078 43.760361439575476 31.022252233042728
61 20 1 13.526593539133732 44.31153198551096 31.340940234135378
62 20 0 14.283547419043526 43.76413649508512 31.652281329473087
63 21 0 10.094075409731921 43.56365976391598 33.31783118139875
64 21 1 10.463113486676308 43.77967697859239 34.179074696385584
65 21 0 11.094774984177079 43.052123394631266 34.187844459768286
66 22 0 5.261258038265552 26.956617417982415 45.038185032471496
67 22 1 4.8854386625157185 26.718858382629342 45.951267244689355
68 22 0 5.494364605264297 26.093500297529335 45.44038381076558
69 23 0 45.67045154875598 11.973014787698958 34.41998419679071
70 23 1 46.070810627405926 11.177542717438634 34.049988539491046
71 23 0 45.32510824665229 10.566079400802137 34.00373032210077
72 24 0 37.819626826691795 30.606496489618934 41.340291072757275
73 24 1 38.44415445166645 31.338435324282255 41.30578027492337
74 24 0 38.1519717602281 31.790992116547653 40.50433241067094
75 25 0 46.12314011259364 35.42647721802164 11.635437678894432
76 25 1 45.34850582974115 35.87518098075884 11.996001723033544
77 25 0 44.51057807897729 35.531019269495914 11.644728807392438
78 26 0 23.014217805700532 14.124040559443285 27.81329905395513
79 26 1 23.593263084590806 13.747191176577694 28.492786795824866
80 26 0 24.456169458766986 13.440374024733867 28.174456834855604
81 27 0 25.54351274743168 11.445132136027638 10.224826330442761
82 27 1 25.836368751360496 10.524138999426583 10.251581441373677
83 27 0 25.251519219431735 10.086466070125496 10.895272493068857
84 28 0 8.960128358079858 28.01481167403745 29.77955980708442
85 28 1 8.443709131327388 27.49852653699696 29.14578298667221
86 28 0 9.107638856964284 27.066967712511666 28.587413190290174
87 29 0 30.95671723244465 34.8687614490695 16.9411056981715
88 29 1 31.573722833491654 35.15877173468074 16.267274488121917
89 29 0 32.019195234888414 34.3051368711345 16.09839171744752
90 30 0 48.189963826364234 15.090484142247387 43.98434335921181
91 30 1 48.0685436345002 14.8910819922215 44.91932819634689
92 30 0 47.913923677988876 15.79874729317514 45.192669274373756
93 31 0 28.627948007024262 3.9902620684541503 16.98309532771027
94 31 1 29.331579774051175 4.140645153625111 17.62830801443064
95 31 0 29.26821009792265 5.061278411859681 17.937119011723542
96 32 0 9.514849626988447 39.118143896597196 10.384123420244658
97 32 1 8.835464378820525 38.977666170749394 9.717505191532453
98 32 0 9.07317846342534 38.12333231949146 9.336071222772924
99 33 0 43.52996952417382 38.11176807619209 20.751605361118187
100 33 1 43.2943038609178 37.44966230117571 20.087884358180787
101 33 0 42.77193180389855 36.77261732306895 20.553961769401326
102 34 0 1.777553690694165 34.379458293430275 10.958338475351026
103 34 1 1.090646705590174 34.704247399091194 10.367771810335695
104 34 0 0.5149128705549112 33.96925208540547 10.597113738579022
105 35 0 37.44873924901682 30.755968367731505 20.67684204440744
106 35 1 38.17657120739175 30.539951456594626 20.086768534165643
107 35 0 37.78453740734896 29.779881274026625 19.639232474652598
108 36 0 36.50001177869266 45.47941022967757 45.88310232071414
109 36 1 36.86301659412866 46.369085035512654 45.791448636181116
110 36 0 36.58553428709171 46.490354519332726 44.870669903943465
111 37 0 14.54660706794052 19.070482876344656 29.726330077590106
112 37 1 14.061702920080629 19.485674151366556 28.996818269165896
113 37 0 14.248083256035335 19.157524422248216 28.103416485855078
114 38 0 6.696599259599671 25.426943133101407 18.08495354454733
115 38 1 6.298548891583391 26.10501852080058 17.514262299205697
116 38 0 6.733486404937785 26.965633117317267 17.623368844467432
117 39 0 23.473528001511614 32.28078729856851 16.09681949980415
118 39 1 24.33875035013081 32.59711310361748 16.373742290666303
119 39 0 24.289748943304467 32.41316202601541 17.31975520310562
120 40 0 21.938313765136815 43.05360719328315 24.505867050878074
121 40 1 22.87188026807507 42.84668211184349 24.361441611562366
122 40 0 23.20621618904566 42.183392549774155 24.98649959536878
123 41 0 31.77401362014077 26.747033081555223 14.403601685630575
124 41 1 31.08905499274887 26.15688418337631 14.744680732745731
125 41 0 30.747452261648714 26.67468801400359 15.488157735146174
126 42 0 23.44785891549646 46.221894905852544 30.694866936411486
127 42 1 23.74877743947117 47.026965375482156 30.25702749125167
128 42 0 24.633076464365672 47.208126818869864 30.596158238267936
129 43 0 4.768659904160009 21.254804696070526 15.337326059410616
130 43 1 5.369692606135296 20.522587627211053 15.135689061902076
131 43 0 5.999566091385891 20.287327424282495 15.843883224530678
132 44 0 9.690569243824077 21.262641972154942 42.86324966753042
133 44 1 9.49686465302711 21.406382772688794 43.80539196300796
134 44 0 9.301121895772294 22.339634239848206 43.97724821556234
135 45 0 29.476061571707614 4.163739583655262 2.4042868107794906
136 45 1 29.96291233543339 4.082845115161672 1.5799467904649456
137 45 0 30.021230017877834 5.002312455366757 1.2943381698797898
138 46 0 4.604291967790431 8.767475703060718 28.644786568762825
139 46 1 4.760887542335099 8.870937595144046 29.59852139304429
140 46 0 5.60072520529849 9.356956852460373 29.80492557787223
141 47 0 43.60865099932166 7.206192823700257 38.77186914674578
142 47 1 44.170380530610494 6.422483009727899 38.6085171270363
143 47 0 43.514006301657574 5.841249891188653 38.21525951628757
144 48 0 4.175016456737934 18.33873997041323 4.698152134109833
145 48 1 4.3158526593394795 17.710341733271495 3.981076585979135
146 48 0 5.25918259680717 17.528963991806844 4.078565839378582
147 49 0 15.72754505011787 21.086912889114583 38.282482090797586
148 49 1 15.464111712490995 20.770619433250534 39.158786954743775
149 49 0 16.094680935665096 21.238238408178862 39.7226158313001
150 50 0 8.485196760379065 46.70213561029059 12.852432529606705
151 50 1 8.144445323829427 45.91739012054636 13.29594510560901
152 50 0 8.869144205126794 45.47698202166295 13.775956228373007
153 51 0 20.14499735955395 34.82443204128815 12.498515045227942
154 51 1 19.363494829065946 35.364836265896066 12.309151447192795
155 51 0 18.575557284656217 34.82516281339303 12.449322166661728
156 52 0 46.65953243989683 30.175799336788735 41.35566512105057
157 52 1 46.842174267685564 30.919717805946338 41.94623562024597
158 52 0 46.90386885560852 31.73359347023649 41.433464452628066
159 53 0 7.601701891807892 16.830701932139267 9.73637470407687
160 53 1 6.93184755863864 16.131268284430497 9.648189047800223
161 53 0 7.125158575096233 15.480079722352128 10.33504919848952
162 54 0 17.062013190252248 30.866342751451572 31.24899838379144
163 54 1 17.233287976194084 30.652700396690342 30.309811321464583
164 54 0 18.048427903871044 30.00549138260796 30.22613649670855
165 55 0 2.236005262620738 38.91778059137221 22.242595115006772
166 55 1 2.043153220500432 39.55582167389145 22.942334503189056
167 55 0 2.70574250938844 39.14305060389675 23.510877498425522
168 56 0 6.21673238059988 15.127321714990643 23.6170364616579
169 56 1 5.8795577783486985 14.255437601803399 23.368529378994367
170 56 0 5.58864342848248 13.870512838269311 24.199887640720902
171 57 0 36.90166499762944 28.01838286831578 35.397914333320315
172 57 1 12.8778498606247 32.445642215637406 28.229562540128136
173 57 0 37.17518939912108 27.864907150295114 34.64408384570307
174 58 0 22.866074880153512 4.716089356831331 35.054459894427374
175 58 1 22.72292776861635 3.7636931368843793 35.299857244537286
176 58 0 22.046789015518712 4.397591633198601 35.6420380822059
177 59 0 12.097865756583484 7.902037768041942 26.94115292030379
178 59 1 12.041991550834105 8.05718953951727 27.92125663117116
179 59 0 12.642572594655213 8.69402743576779 28.364627535214392
180 60 0 31.75002423454129 27.269873011780852 9.692539810172455
181 60 1 33.68886622903689 20.552589841358706 11.57304733391124
182 60 0 31.606127829465372 26.5512773061431 9.847139764381721
183 61 0 21.428785423016627 27.240557805074342 31.531965402048712
184 61 1 21.329512349911695 26.69168577083481 32.323298377434156
185 61 0 20.597424139666334 26.076737916259695 32.179052106617995
186 62 0 9.98302844072892 48.47477879990452 41.89347516548313
187 62 1 9.096139776846984 48.10730456748452 41.94173549920152
188 62 0 9.212139942825752 47.36792618794617 41.33760505098627
189 63 0 44.846325934209545 6.8822929746038195 12.09442815238878
190 63 1 44.543515379004724 6.4931054863303626 11.260866383248354
191 63 0 43.900094648441346 7.15191933972806 10.963159519338587
192 64 0 42.78309586884606 10.175638902041639 30.837556670215047
193 64 1 42.95680538364685 9.536341565887287 31.54644471682705
194 64 0 42.12535050366308 9.151239050402141 31.85624353659368
195 65 0 6.9423094535717835 39.91920339460695 33.46778273934628
196 65 1 7.596737055130696 40.330252474137794 34.04766718981878
197 65 0 8.419460491740452 39.81428862188916 33.81873132596525
198 66 0 23.716667927072667 21.18506229554584 45.082488716744486
199 66 1 23.24645586233424 20.714443925354825 45.80626606832655
200 66 0 22.409079131265592 20.32310641725848 45.51316447848398
201 67 0 5.305555278324585 6.5553900467711745 45.22184377816794
202 67 1 5.586798423440907 5.842756829073606 45.82111365005594
203 67 0 6.292209736686063 5.79096877717035 45.149255918238275
204 68 0 20.89937040695206 29.545243410433354 28.007810461055
205 68 1 20.640429635201915 30.45929320714669 27.798920455943517
206 68 0 20.013013867372333 30.860346965172234 28.42118066385318
207 69 0 45.67927589743667 41.83859091286268 37.214532455723955
208 69 1 45.302781603122696 42.56935912321691 36.69501151532038
209 69 0 44.28415267469925 42.55374647876339 36.617117158255716
210 70 0 22.978126334516418 35.83589379259928 45.75890274096277
211 70 1 23.87717148099484 35.73054710229517 46.08371138629464
212 70 0 23.9647715269509 34.804612812804486 45.83282643794096
213 71 0 46.679223997897765 22.589646895146068 21.757610267279507
214 71 1 46.46965563013135 22.03477771716247 20.996470567238664
215 71 0 45.504759766470634 22.089724968531343 20.962554566895044
216 72 0 30.94074445452115 11.593617127206596 10.942005424708737
217 72 1 30.57032324819353 11.197874609397857 10.149798632391262
218 72 0 30.981781036066298 10.335495655216585 10.240607326736214
219 73 0 19.65981633233127 40.54537007435618 9.94014723322881
220 73 1 19.93073640099908 40.53789846386129 9.013865049193914
221 73 0 19.850392031342196 39.60076694925999 8.816883444479574
222 74 0 35.770982580400336 14.851608649229131 3.816031421342083
223 74 1 36.12701264942372 13.82240415337981 3.588828372600076
224 74 0 35.2760229172528 14.444246827171785 3.9313236367608106
225 75 0 8.312231457323968 20.723933412555237 21.606390673030504
226 75 1 7.566233720550506 20.112129013805955 21.521427013478462
227 75 0 7.73296125061609 19.325437464557098 22.059433420360612
228 76 0 9.084596917779065 14.491142331688827 18.80139640397614
229 76 1 9.060009119908026 13.505562484520944 18.852894508762805
230 76 0 9.990821127666704 13.71748113503098 18.59654206843612
231 77 0 11.674041485112092 4.225527457474586 24.63138214378785
232 77 1 11.895670269143727 3.290545464939286 24.68382015646708
233 77 0 12.799615781172317 3.2915625520960163 24.345534608703122
234 78 0 5.685005628075372 12.189841213431885 5.305985215361556
235 78 1 5.965661346077148 12.845126824750574 4.652016276329117
236 78 0 5.789501716735845 13.766531904431305 4.9031981056010645
237 79 0 10.14571645509669 12.811168520417905 22.36204216637639
238 79 1 9.796390832745393 11.95856563724166 22.65051914396286
239 79 0 10.295780783687555 11.766756417295678 23.45175222380414
240 80 0 42.33154967945912 19.123148024899525 23.43866139057961
241 80 1 41.97107541391502 14.764468893049134 6.460055805983949
242 80 0 43.631661452198685 20.96788942166487 24.18469155647832
243 81 0 25.765193154396734 11.31922956123007 34.58927306556718
244 81 1 25.786341615489448 10.450890877858427 35.07374517355039
245 81 0 26.11856324076254 9.795413975973585 34.45366302628477
246 82 0 43.486672490851525 2.6006705667091987 10.042278909010093
247 82 1 44.199866771286615 3.1355069379535605 10.424005842017152
248 82 0 43.816961617118835 4.041178323748265 10.614151902355431
249 83 0 21.06511362394731 19.395731526164614 5.389423379263548
250 83 1 20.950074721109935 19.014739833922444 4.435669473303541
251 83 0 20.0721151505821 18.615047598224876 4.623010630323007
252 84 0 16.525677254471994 38.4788719864759 23.034637002592685
253 84 1 16.584337337225563 39.25123612790767 23.616950309914326
254 84 0 16.711563590354572 38.86286057864108 24.491565289657768
255 85 0 45.904893121341836 38.98728565199336 30.992320607963556
256 85 1 45.54272786658306 38.26503067562872 31.526001440830118
257 85 0 44.91696008424085 37.71519107961668 31.022695640535684
258 86 0 25.549905112366318 36.11062449822727 40.64072169924414
259 86 1 24.913518167594166 36.64476232755549 41.141597704132536
260 86 0 24.09326045556468 36.14886768448235 41.27492180860254
261 87 0 16.947036227154957 5.1122742158080525 19.627403436393024
262 87 1 16.06685137071505 5.170087381184384 20.028911575986676
263 87 0 15.62285037336111 5.996564654012827 19.786587886537767
264 88 0 43.59163492725621 18.770669806037418 14.171690240920642
265 88 1 43.86539521775995 19.159591290947827 13.331552033356136
266 88 0 43.06297029946487 19.37873197718745 12.836221220073813
267 89 0 39.66116164281537 34.12689276822756 44.920982941361956
268 89 1 39.40755631992191 34.756139905646734 45.61711124615333
269 89 0 38.5671442731134 35.19770967043598 45.420884052068914
270 90 0 39.74648670348176 8.944646358166892 14.094137516565429
271 90 1 39.548139507837526 8.700319536334467 13.008372397927063
272 90 0 38.60641884801805 8.491719037650382 12.880497519555394
273 91 0 17.078838701998706 8.086085188611957 10.186785819424315
274 91 1 16.889349198758815 7.778264336504952 11.090784433041716
275 91 0 16.83932954637431 8.544756282523075 11.7418753188905
276 92 0 10.474415172697762 32.229329007759176 32.36799100532678
277 92 1 9.758397149228044 32.860218898143785 32.619799721800874
278 92 0 9.317981463835695 32.647751978886205 33.46937496348727
279 93 0 20.208918455328153 9.603733656148917 10.236861097229593
280 93 1 19.979307408909285 9.541744772006458 9.307281962870803
281 93 0 19.04252068802596 10.000593635132965 9.339082741675709
282 94 0 25.32745734462317 42.048861235046516 35.73099934730828
283 94 1 24.966852225713122 42.69493689942199 36.358418391639354
284 94 0 24.099768420815032 42.43149989545905 36.704264919951314
285 95 0 11.03021925835021 16.414369208360117 43.624879095331025
286 95 1 10.719374917756452 17.250839434464638 43.98029393201445
287 95 0 11.407036286865965 17.76336662547363 43.54039445675754
288 96 0 15.921702344344524 42.452526314244366 23.048910664831336
289 96 1 15.394397495633253 41.95268500089494 23.6889635614005
290 96 0 15.084827142114353 41.11760204536756 23.28909425589673
291 97 0 30.739024724852538 3.0172173841256638 6.689098511831099
292 97 1 31.406113014383532 3.034252963865167 5.9914146328066185
293 97 0 31.76897738305133 3.9065382907158823 6.195865418769162
294 98 0 18.23474584354741 38.90739993971656 36.2721177174488
295 98 1 17.276957803559736 38.80644730920531 36.18472883574894
296 98 0 16.91988870716672 39.11227902120327 35.33847680417507
297 99 0 30.378975377471605 23.843475221022462 38.837764139175825
298 99 1 31.321942672446 23.90829223243357 39.01453243675331
299 99 0 31.736870204022374 24.136652578733322 38.17135011321533
300 100 0 6.099091745086103 40.64348616331588 41.663012334395496
301 100 1 5.203635158768064 40.86987908214308 41.9520128605795
302 100 0 4.69701965689868 40.3930167253431 41.283641581597834
303 101 0 39.71973030057759 11.204429349228656 4.046609158209989
304 101 1 40.46097526572961 10.581481020409607 4.133169464109601
305 101 0 40.85817243262034 10.708646110151442 5.011804752159397
306 102 0 27.188673405360518 24.169975108949927 43.40311075597851
307 102 1 26.609532440186957 24.723535742821753 43.9431426028097
308 102 0 26.653320793830233 25.642922949527662 43.64773567367595
309 103 0 29.57910107808021 34.863899221600555 15.173774041389105
310 103 1 29.387761184537393 35.6917471981704 15.674368166224875
311 103 0 29.51050260042484 34.8986301304832 16.252011166500584
312 104 0 38.16801327682068 11.612675328319552 9.728368291769726
313 104 1 38.28183091532822 12.57422442054634 9.558944538147772
314 104 0 37.62639826723754 12.587942664140803 10.280747531110874
315 105 0 35.00268394858298 38.71234169088132 11.621777639226726
316 105 1 35.943610314777025 38.72871691126837 11.395312212008685
317 105 0 36.34213234905087 37.84787625865617 11.477731820762797
318 106 0 23.980615196660555 39.70402087763879 41.26177289087101
319 106 1 24.344027638675367 40.596229194324145 41.2298107493072
320 106 0 24.187454236931096 40.80650601983649 40.301132466183546
321 107 0 26.400834674365072 34.11422140270132 6.306286377817606
322 107 1 27.109997909030902 34.14525443375642 5.6523249397804145
323 107 0 27.57224932220175 34.97884766798913 5.826829424757043
324 108 0 24.257437386063717 11.038904690945401 15.186052472658913
325 108 1 23.78844835770601 10.26477403979296 14.844720541517503
326 108 0 22.954286862600043 10.761039878407626 14.884383426948585
327 109 0 44.94293080764 29.768924807421183 28.767179811286017
328 109 1 46.14264584999218 33.068369515951616 29.327385411652866
329 109 0 19.311562204008762 37.47194457956393 40.89454872578219
330 110 0 22.021683170991537 35.141204095425344 4.039945824622425
331 110 1 22.737361902475346 35.70179515449445 3.699964474764482
332 110 0 22.930234483096775 36.46457779341261 4.263219038581092
