ITEM: TIMESTEP
149
ITEM: NUMBER OF ATOMS
333
ITEM: BOX BOUNDS pp pp pp
0 50.0
0 50.0
0 50.0
ITEM: ATOMS id mol type x y z
0 0 0 27.14318051488758 23.86050571339783 32.358743545829746
1 0 1 26.956871934068577 23.22778926144823 33.057534270476886
2 0 0 26.7167246715486 23.764293453991943 33.82096862001827
3 1 0 31.468610449027043 43.65300392765793 7.116953249329385
4 1 1 28.345265352560894 43.175665655388514 2.7785759449410774
5 1 0 27.428454758252027 42.950800975147466 4.191905892901584
6 2 0 38.95350837158976 25.151081467497633 37.50421579201043
7 2 1 38.23029674385513 24.51107347359229 37.537279356111874
8 2 0 37.5403838735226 24.716397972115136 36.88649902430873
9 3 0 14.428296641544275 33.752964160840655 22.423042878937732
10 3 1 14.427063719564291 34.477636996539104 23.058489337889604
11 3 0 14.794067907140146 34.05101344271176 23.84030546837542
12 4 0 33.81744580666108 18.45420389027432 24.60165904113511
13 4 1 33.94422243954619 17.876348423841737 23.83816701399618
14 4 0 34.02391552964955 16.965724334353975 24.145417908511988
15 5 0 16.594205053475932 5.150415315846318 38.52087281870687
16 5 1 16.138394871150382 5.260625057260002 39.364923795745725
17 5 0 15.954769270460316 6.188321713867565 39.142279360425654
18 6 0 44.37920413669158 39.70642510571214 8.295516982445013
19 6 1 44.685918882596134 39.58458503984889 9.207008424805341
20 6 0 43.88374251917553 39.51236961271359 9.768190068658631
21 7 0 36.54920137328074 7.074743658171124 39.06488995390308
22 7 1 37.19264058316991 7.549917108945638 39.6018813628917
23 7 0 36.87744089516423 8.461166835127903 39.529337421830256
24 8 0 3.7360446276931416 15.60239603207635 10.426514513622637
25 8 1 3.717562079637085 15.177044688005727 9.54927871272361
26 8 0 4.3399345954442 14.439176168072562 9.513782908385474
27 9 0 10.715110429163854 18.19631022056956 13.900686851273667
28 9 1 10.003942438467773 18.808960660922995 13.676777549378379
29 9 0 9.814531559097073 19.121668083017628 14.569467886540524
30 10 0 32.4774643034571 16.35126063097438 10.60653768838682
31 10 1 33.43039412620317 16.419509092976856 10.295983655639967
32 10 0 33.77189889589164 17.31881582779839 10.10341803639189
33 11 0 33.39626938681431 46.19541121225629 13.161082728425026
34 11 1 34.329527578142915 46.33322999092473 13.367214164822942
35 11 0 34.52999873249922 45.716824981564606 14.079773230084857
36 12 0 40.73522706237188 37.894850538558096 11.05797206498743
37 12 1 41.69718965909955 37.93431761416448 11.148828391158075
38 12 0 41.922755005090586 37.45882633795577 11.96034330795976
39 13 0 35.41421735950489 26.78301715686826 45.889831697421215
40 13 1 35.65641706732605 25.889552683883473 46.158686885774756
41 13 0 35.551408814878954 25.323820226364592 45.38651635856912
42 14 0 12.596722212576024 29.140672372662408 23.036822837706527
43 14 1 13.352477256148052 29.18794481782198 22.44597558922139
44 14 0 13.557255728989585 28.255719347708006 22.347907208310552
45 15 0 31.407032950670896 23.616606779930237 41.929836829629544
46 15 1 31.570404479619857 23.05843123557304 42.725780581767545
47 15 0 30.76964682740468 22.73613242887297 43.16820376248381
48 16 0 43.997814330423886 35.96050734137833 44.349370141730155
49 16 1 43.54513575792099 36.10767007791377 45.18688618567148
50 16 0 42.65494878365454 36.3134244280083 44.8739346947421
51 17 0 44.31954230211052 22.57243572557931 25.394183949428005
52 17 1 44.52009366898406 23.26766517679852 24.75596368664744
53 17 0 43.67804495794895 23.694809211649034 24.542821952020187
54 18 0 35.17232812790291 7.430100809550049 26.11667869623432
55 18 1 34.71204821014931 6.630442875590284 25.82853871389675
56 18 0 35.30286522779077 6.161586465152143 25.22626191395309
57 19 0 37.1280447173288 12.30856255935571 15.20024391540273
58 19 1 38.03165365400523 12.428821068587313 15.529667689046954
59 19 0 38.44568841744876 13.200731290786695 15.118468636425007
60 20 0 12.799701744872282 43.759570248922124 31.023099085645672
61 20 1 13.526764003454614 44.311516483988385 31.340995680000287
62 20 0 14.278971154899672 43.76522854554612 31.65035652019159
63 21 0 10.085648835566147 43.57425554800847 33.31890475918718
64 21 1 10.463380808472934 43.77875115180597 34.178260077560665
65 21 0 11.098853192548829 43.05647563412864 34.199996628346604
66 22 0 5.235585850274476 26.993079025242324 45.05004708485528
67 22 1 4.887613679837347 26.718034268773355 45.94809129503803
68 22 0 5.485226185680266 26.070235734676565 45.47934209547337
69 23 0 45.67635765492359 11.975444245013149 34.41950447886037
70 23 1 46.070173146357256 11.1776427687031 34.05017572673606
71 23 0 45.329593879604985 10.562160141812454 34.00135147266347
72 24 0 37.823337709336606 30.60407528181803 41.34704837812927
73 24 1 38.443543574422065 31.33826795581851 41.30524552507266
74 24 0 38.15801734039246 31.79606078437041 40.5060716893743
75 25 0 46.120434958397226 35.4248572522942 11.633852685494391
76 25 1 45.34846897455233 35.875357996586274 11.996180362756894
77 25 0 44.51413273220075 35.52953638007507 11.643602250865243
78 26 0 23.01891646240622 14.122519160289933 27.810785912321492
79 26 1 23.59314663390718 13.747158999873959 28.49321433065124
80 26 0 24.453331719298014 13.442413615271223 28.170119946472674
81 27 0 25.546589659688568 11.444848045857608 10.222229517712709
82 27 1 25.835964422619554 10.52429276464914 10.25187712765507
83 27 0 25.254850785365146 10.084282648444766 10.89303368441996
84 28 0 8.95553373691381 28.01571399319776 29.78081244516307
85 28 1 8.444274396259269 27.49855246859358 29.145803245395793
86 28 0 9.103159128723322 27.06561136926251 28.58583045788632
87 29 0 30.95226296925688 34.87823809630371 16.94229504132568
88 29 1 31.56514434398264 35.15978602608621 16.26525607373422
89 29 0 32.023248948788115 34.31281258001741 16.092204798140976
90 30 0 48.19182494266317 15.077820501335315 43.98242620538583
91 30 1 48.06851832431126 14.892113560090127 44.918676269053556
92 30 0 47.91246871869541 15.794906721407326 45.20501917623848
93 31 0 28.629103049865233 3.989270026790008 16.98366798703062
94 31 1 29.331438345151124 4.140859754287969 17.628274848182038
95 31 0 29.269319700021956 5.058828594294886 17.93708123969031
96 32 0 9.512244031766306 39.12327594729322 10.385424870322677
97 32 1 8.8359271367972 38.97727767461795 9.717629607285534
98 32 0 9.068382207718475 38.1244106209389 9.332773349870974
99 33 0 43.53121393185448 38.11264066312996 20.74868105733145
100 33 1 43.294159529144196 37.44959506637998 20.088307353397003
101 33 0 42.77300035689356 36.772826547014695 20.55012743290045
102 34 0 1.7873679758308278 34.39285188838869 10.953807341039079
103 34 1 1.0907834620606103 34.703022277787674 10.368723948106265
104 34 0 0.502905548796977 33.975458665830075 10.586409926691589
105 35 0 37.45413011262562 30.763621895134843 20.68055267961979
106 35 1 38.175695325187824 30.539497830043683 20.08685604293665
107 35 0 37.79316167430738 29.77948045310801 19.63412597080643
108 36 0 36.50456856587717 45.47972667627676 45.89536966304836
109 36 1 36.862373375581186 46.36833806568087 45.79058567545282
110 36 0 36.59126866832139 46.501991676075846 44.87221071610222
111 37 0 14.548992688461222 19.067089938186445 29.720516612925977
112 37 1 14.061290975579075 19.48612956689355 28.996913978099887
113 37 0 14.252290772105503 19.153628037389286 28.107700529676993
114 38 0 6.697059218173522 25.429810321775644 18.08444080195519
115 38 1 6.298493238209122 26.104998454049852 17.514220923722064
116 38 0 6.733915092709259 26.96313858289828 17.62455038917759
117 39 0 23.475557829201126 32.28309563602944 16.088395035703062
118 39 1 24.33810490311074 32.59675280805281 16.374250217952696
119 39 0 24.2980084311577 32.41658354963155 17.32007020492074
120 40 0 21.939416946651868 43.05149897414282 24.50783761275347
121 40 1 22.872013968952853 42.846739203272115 24.36132148660499
122 40 0 23.20299812645998 42.18459025097759 24.986440952762045
123 41 0 31.774981972369904 26.741232046136737 14.39843476474279
124 41 1 31.08927792990062 26.15764686384442 14.744972474291597
125 41 0 30.74290901480754 26.668293483107266 15.48866912103495
126 42 0 23.445617690561054 46.222609492365585 30.693134152607794
127 42 1 23.748943760386194 47.0267844049 30.257252158671346
128 42 0 24.632659680306528 47.21032581674418 30.594298516736206
129 43 0 4.772002655666373 21.254175995617064 15.342158310525363
130 43 1 5.369736592271643 20.52232714212012 15.13532736180147
131 43 0 5.995402853977613 20.292145778965946 15.844846449215872
132 44 0 9.689940091476286 21.26415952420014 42.86526416826289
133 44 1 9.49686929254511 21.40638122251466 43.80535650778669
134 44 0 9.301605817806866 22.33836609194183 43.97579441402228
135 45 0 29.476340057025734 4.15652011775104 2.4052473651750734
136 45 1 29.962665895815253 4.083467666039421 1.580233103697713
137 45 0 30.024843210531614 4.99960428157281 1.288641826144499
138 46 0 4.607558009891163 8.769376032086832 28.646316081126653
139 46 1 4.760973690347043 8.870990099059396 29.598708315924977
140 46 0 5.596063395082771 9.354212083801315 29.800417790443067
141 47 0 43.617967236722954 7.208028265533996 38.774948454013135
142 47 1 44.169380000047994 6.42280185930667 38.608389384705944
143 47 0 43.520710582389576 5.834290432015128 38.21424443564156
144 48 0 4.167320370041847 18.33892101524488 4.695773124421395
145 48 1 4.316404636035151 17.71064211758452 3.9816151558201134
146 48 0 5.258003295747375 17.524102944141973 4.072247464865566
147 49 0 15.721529116056326 21.08208428389751 38.280478973242204
148 49 1 15.464731699356037 20.77116434709596 39.15855316190501
149 49 0 16.090790370817164 21.234351251560543 39.72834792284683
150 50 0 8.484938217609633 46.70172983761525 12.852641199649796
151 50 1 8.144588969769034 45.917344061561174 13.296013056971752
152 50 0 8.86710294635762 45.47813449024155 13.774663788013605
153 51 0 20.144252073960384 34.825956286965955 12.49802624236972
154 51 1 19.363528561696 35.36466865396487 12.309203965125615
155 51 0 18.575742314695095 34.82629393923942 12.448982616999432
156 52 0 46.65976535360948 30.176867587215078 41.35626433289897
157 52 1 46.84216539904389 30.919686311477275 41.946189034079126
158 52 0 46.90379805541424 31.733012582472067 41.43360180304593
159 53 0 7.598976899057233 16.830465773648193 9.733988055196956
160 53 1 6.932147578870761 16.131333764862855 9.648435527376611
161 53 0 7.122747411267079 15.479154919572222 10.33348436330211
162 54 0 17.06332478724923 30.86505144285385 31.245905021036442
163 54 1 17.234005853445826 30.652134717155167 30.309884321098966
164 54 0 18.035495173214997 30.01581694947777 30.228286497893134
165 55 0 2.2234479302885366 38.92627092839106 22.23293540996369
166 55 1 2.0442097096343135 39.554520065387095 22.942166280312485
167 55 0 2.701393337208869 39.15538672675527 23.523228380106104
168 56 0 6.2174256975808495 15.127152814997615 23.611941875889162
169 56 1 5.87959069413666 14.255714674062924 23.369006665179164
170 56 0 5.587210442140176 13.866325069057478 24.19743753034948
171 57 0 32.30049325909951 28.86621802557547 34.024190368038205
172 57 1 13.456339543323708 32.337802555190336 28.39217142625268
173 57 0 32.52044000241268 28.742557711113868 33.41601749075449
174 58 0 22.898460467286668 4.699008091523351 35.035956007868855
175 58 1 22.721889829087896 3.7669288548247435 35.30002212107734
176 58 0 22.03101260861343 4.362885486614294 35.657900517960165
177 59 0 12.105071600497407 7.909814754786844 26.94711750918391
178 59 1 12.041421567181859 8.056740891711346 27.921576238120977
179 59 0 12.64450575135595 8.693462667870802 28.353599937571527
180 60 0 32.08670734791365 26.110028252690032 10.017490803778431
181 60 1 33.64584726098107 20.68882234204725 11.534425692007959
182 60 0 31.95776482347285 25.53162130773314 10.14019059595006
183 61 0 21.42937793453655 27.24021970983817 31.533534350157
184 61 1 21.32941278828042 26.69168090793106 32.32313767111448
185 61 0 20.598443671682247 26.077103684086474 32.18010626352854
186 62 0 9.980321864136414 48.48213505378845 41.90005863230449
187 62 1 9.096918307138118 48.10701086573204 41.941225181162615
188 62 0 9.202392183365419 47.36527915445243 41.33919214127428
189 63 0 44.85046740930733 6.875904571563706 12.094207595051587
190 63 1 44.543292039280246 6.49381788057532 11.26123610985647
191 63 0 43.8996031220044 7.146915025699365 10.957460776645375
192 64 0 42.78290958547214 10.174329736183163 30.838937531877292
193 64 1 42.956755616703056 9.536368481222095 31.546395039377252
194 64 0 42.12614979514594 9.152025106252664 31.855496584508202
195 65 0 6.937777966909355 39.924198887518315 33.47104269256966
196 65 1 7.597160344163392 40.32945779319493 34.04707016024254
197 65 0 8.41706771324459 39.82184467679271 33.82501845141409
198 66 0 23.71246613380107 21.18226707505368 45.083958727840745
199 66 1 23.24659243400913 20.71450760603223 45.80631032533002
200 66 0 22.411049186195903 20.324828700601174 45.51101490809616
201 67 0 5.284576598627849 6.5586440097422125 45.23967696986934
202 67 1 5.587523647661584 5.843836650459468 45.81900299501865
203 67 0 6.301583906148548 5.770436927429209 45.16519391639459
204 68 0 20.89570858310532 29.547565879245138 28.0114548787467
205 68 1 20.640597887544033 30.459471351647068 27.798583831495133
206 68 0 20.014231008147156 30.855192482598625 28.422711336698473
207 69 0 45.674008640402725 41.83864430637473 37.214040799644735
208 69 1 45.30235942520599 42.569570135603385 36.69483603123985
209 69 0 44.29617490610389 42.55033424374626 36.62043319273774
210 70 0 22.97830810442893 35.84820023859482 45.76277517063502
211 70 1 23.876413294617343 35.72975791328966 46.083175202114866
212 70 0 23.976696542493023 34.80489999985278 45.83765707970991
213 71 0 46.68571998135037 22.587961502276556 21.75608117121009
214 71 1 46.469186202743856 22.035139141724446 20.99689126193826
215 71 0 45.505894648529626 22.085569463208664 20.957149515476626
216 72 0 30.935255787603072 11.603605039038545 10.939874933691558
217 72 1 30.57098831329669 11.19748158315319 10.150541626101763
218 72 0 30.97674704017844 10.331775768948646 10.230844227887301
219 73 0 19.66120336342557 40.55380985791744 9.939661105180736
220 73 1 19.930488103108942 40.537283712701026 9.014399231763736
221 73 0 19.852975286689993 39.60220580556052 8.808808025260836
222 74 0 35.83081386810473 14.842877273485586 3.795767697385221
223 74 1 36.123770609071336 13.82689470154874 3.590358803254055
224 74 0 35.26797611928153 14.381179244099918 3.927037798636658
225 75 0 8.311055615597908 20.723033909803323 21.606220828601234
226 75 1 7.566325213779307 20.112123246848736 21.521485498479233
227 75 0 7.732682577195473 19.326465535521123 22.058696271618476
228 76 0 9.054614503542894 14.486781951503419 18.809537266322284
229 76 1 9.061801185271934 13.507795470007697 18.852299086090625
230 76 0 9.992121854290996 13.686181996212008 18.597620959838487
231 77 0 11.667039663478388 4.223789835755424 24.63425130254768
232 77 1 11.8961304322996 3.2911280976220407 24.683561994317902
233 77 0 12.799237248482106 3.2839139561013426 24.346783363423707
234 78 0 5.6838076533138535 12.19420902945751 5.3079196096933385
235 78 1 5.965834115825517 12.845058624723533 4.651670493015338
236 78 0 5.78798167397529 13.763107309613869 4.906727522397201
237 79 0 10.142032761563962 12.810346007291292 22.358055603560384
238 79 1 9.796818309371268 11.95889329189359 22.650768827775
239 79 0 10.292831008191598 11.762148559590216 23.45195584719556
240 80 0 42.264990760570484 18.30497843791165 20.245393960978273
241 80 1 41.99493028896776 14.888974444808616 6.868970852061943
242 80 0 43.31664952038567 19.794077975236117 20.83530783673184
243 81 0 25.76448357810738 11.314465431902342 34.59450536038296
244 81 1 25.786401504310138 10.451298572168497 35.07330262434265
245 81 0 26.118323841143983 9.793662429110604 34.45552040371755
246 82 0 43.48938689073781 2.5998349778283765 10.04278131305189
247 82 1 44.19938482031261 3.135975889243958 10.424022621608787
248 82 0 43.821952244555504 4.034461063080716 10.613367417760378
249 83 0 21.07476700629575 19.395220885322626 5.372760062123198
250 83 1 20.949267936428008 19.01495758860416 4.437582596745865
251 83 0 20.075369624436373 18.61207683056044 4.609061257727194
252 84 0 16.525091575315955 38.48357193764784 23.0311157386673
253 84 1 16.584233900792988 39.25091256500325 23.617084247219868
254 84 0 16.711635295366296 38.86843118550681 24.493095239525385
255 85 0 45.90298610323026 38.985423117412154 30.991169179408736
256 85 1 45.54272610148138 38.264973889495096 31.52611929772544
257 85 0 44.91889171775212 37.71800857152712 31.021967896981412
258 86 0 25.548271364340188 36.111119444277776 40.64162936891226
259 86 1 24.91353913006832 36.644701950401675 41.141568465794656
260 86 0 24.09465449038466 36.149026124203914 41.27439875645048
261 87 0 16.94531840654188 5.113911069818042 19.62733666963146
262 87 1 16.06682845577968 5.1700411326012405 20.028948128529976
263 87 0 15.624955229368846 5.995668977081258 19.786050191087686
264 88 0 43.59361605718191 18.770816690849138 14.171416246115328
265 88 1 43.86513641696715 19.159562892633218 13.331609078442936
266 88 0 43.06513851108514 19.37904792933907 12.835583921529928
267 89 0 39.658553060430876 34.12888424510361 44.92132638959577
268 89 1 39.407625034954904 34.756140435530895 45.61720471676188
269 89 0 38.568433758415495 35.19567910585567 45.41912719932118
270 90 0 39.74011390089277 8.93724052457642 14.061635004312693
271 90 1 39.5483964688134 8.700733254899312 13.010348542777308
272 90 0 38.60870146453399 8.492329897177958 12.881383787862669
273 91 0 17.078373774223913 8.0872295140681 10.189823678045597
274 91 1 16.88930988540417 7.778542865445614 11.091065213262874
275 91 0 16.840149005730023 8.538997731693001 11.734486955654873
276 92 0 10.46991619690643 32.23046364744304 32.372847528915045
277 92 1 9.758407943389523 32.86030940115451 32.61968222283366
278 92 0 9.322259921520669 32.64518966232804 33.4664738790329
279 93 0 20.217685798629763 9.59921286426083 10.23529898079403
280 93 1 19.97789889918353 9.542560949490726 9.307924882565302
281 93 0 19.05649616016304 9.992197674525645 9.330182319683633
282 94 0 25.324504713320916 42.04848896170435 35.732511924135125
283 94 1 24.966931567417472 42.69507760398947 36.35845562507222
284 94 0 24.10147056465188 42.42966276159099 36.702075937310525
285 95 0 11.0191660589233 16.40709382901133 43.63209167023607
286 95 1 10.720441158557602 17.250514016477624 43.97945368805903
287 95 0 11.40109276069339 17.77560865773169 43.54664360528025
288 96 0 15.920821246327998 42.45136954645946 23.049466124035256
289 96 1 15.394514527186683 41.95227256798985 23.688873303406464
290 96 0 15.086025688205858 41.12036292412093 23.289824579989858
291 97 0 30.736191957880287 3.0066034160441335 6.68493060090541
292 97 1 31.405844241142635 3.0350443121205686 5.992249885630859
293 97 0 31.776160834480848 3.9044464846693905 6.186816517483425
294 98 0 18.233716492489336 38.90905218811957 36.26785238308243
295 98 1 17.27672929747904 38.80629948656755 36.1850005490782
296 98 0 16.924573225431097 39.112985372748156 35.338400254949676
297 99 0 30.378522669050287 23.84274751807409 38.84088932743843
298 99 1 31.321821627049935 23.908358702274082 39.01416308126462
299 99 0 31.739242355641434 24.136380648596543 38.17379959840768
300 100 0 6.101439713150613 40.64889199846555 41.67050497004075
301 100 1 5.203969110316784 40.86932913112133 41.951266011591905
302 100 0 4.689320698799001 40.39640414460571 41.28810811772061
303 101 0 39.72115554030719 11.202525009698842 4.045501747218067
304 101 1 40.46088883123563 10.581673240718835 4.1333807161714775
305 101 0 40.85817905493362 10.707329664223236 5.009443819165685
306 102 0 27.188269227320056 24.171191711443633 43.403264378811166
307 102 1 26.609525212135626 24.723544170870394 43.94314713102885
308 102 0 26.653783250678817 25.64165265640141 43.64752313277803
309 103 0 29.576174972758594 34.88839793510891 15.142814271125518
310 103 1 29.396946905466876 35.6864596307383 15.676864151555037
311 103 0 29.504148912479735 34.925378828151146 16.28033584474635
312 104 0 38.18702196451674 11.611449546136042 9.70746860741409
313 104 1 38.28053519565705 12.572534782236277 9.560446378406507
314 104 0 37.628063690579836 12.61621366092344 10.277616726506418
315 105 0 35.00413790144423 38.71063381662582 11.6217755060173
316 105 1 35.9436612585279 38.72875972315747 11.395290314233721
317 105 0 36.339816050240294 37.848909089262484 11.478073263418912
318 106 0 23.982893127122896 39.704026668779264 41.2705088394173
319 106 1 24.34364310010948 40.595751323863915 41.229147942203845
320 106 0 24.191274049914423 40.81445100034905 40.3030829911932
321 107 0 26.400123598714323 34.11040487359366 6.304150987341057
322 107 1 27.10992451739125 34.1456275009936 5.652681043046112
323 107 0 27.57424184993629 34.976652961265316 5.823308786519275
324 108 0 24.27289736280117 11.028415291513014 15.184873487872425
325 108 1 23.787933484747093 10.266420275195866 14.845216480281326
326 108 0 22.94702467096297 10.745191041656932 14.877766485722608
327 109 0 45.096053017233686 30.25404982482506 28.858405038572613
328 109 1 45.808131131395456 33.09157092892749 29.461829538277687
329 109 0 24.510661388654352 36.61553659739191 38.65217193286816
330 110 0 22.022722396460626 35.144596550918976 4.042209998278342
331 110 1 22.737475932959505 35.70171846190702 3.6997188689955025
332 110 0 22.927267360106313 36.462441424006535 4.264825005608855
