ITEM: TIMESTEP
156
ITEM: NUMBER OF ATOMS
66
ITEM: BOX BOUNDS pp pp pp
0 50.0
0 50.0
0 50.0
ITEM: ATOMS id mol type x y z
0 0 0 27.181699607544456 23.708085442470672 32.24917075466279
1 0 1 26.95878530846434 23.246300319133432 33.05449101450183
2 0 0 26.692761645583378 23.641635952242616 33.92113633636991
3 1 0 26.58113354272757 44.1732753460833 7.457608777056823
4 1 1 26.56898488958784 43.40439621774249 6.897550160792856
5 1 0 26.26311903711826 42.42420593491811 7.071540692524637
6 2 0 38.32817926911618 25.225974658180657 38.429249217618775
7 2 1 38.03360316080106 24.648819977882273 37.793463276132805
8 2 0 37.351981056420705 25.080291331695918 37.299447555328406
9 3 0 17.087988891496202 34.43030409642962 24.578185409986265
10 3 1 16.240486906031453 34.805671336112844 24.149097268670122
11 3 0 15.702426845421298 34.00964135043769 23.89769752111929
12 4 0 33.82073224616387 18.433665151716202 24.598082254944178
13 4 1 33.945510031522986 17.87970512712099 23.842247126047482
14 4 0 34.02789164460164 16.985583122217776 24.070901765744036
15 5 0 17.574897636414182 18.84424620090462 25.600725259213274
16 5 1 17.071810976180775 19.481943622311064 26.029730694630125
17 5 0 17.0700356126938 20.33639457734651 25.635902676894144
18 6 0 12.608234046611669 21.304604336868184 15.278553514661935
19 6 1 12.290216892176346 21.53141498507279 14.435138563686577
20 6 0 11.775149063152192 20.821899409635282 14.7582374470325
21 7 0 36.69892089923611 6.857858021028453 39.135442359569716
22 7 1 37.18202901373842 7.559580288631266 39.595879776964836
23 7 0 36.90067769024776 8.520047597182 39.55542097409864
24 8 0 6.001748492048449 15.022186788287875 8.735327100777797
25 8 1 5.242202476048337 14.604263672468228 8.25125159817239
26 8 0 5.111155556073051 13.725568676551095 8.257744464952859
27 9 0 26.56668754078101 12.691638234584813 27.897868030576888
28 9 1 26.62957571119787 13.590079503929317 27.72346324063441
29 9 0 26.02321058201008 14.134821504458763 28.226607955056824
30 10 0 33.77054079073999 15.424014300356419 10.56400316586189
31 10 1 34.38353045085408 14.761126724407479 10.754779537690302
32 10 0 34.153438733599785 14.462052762456711 11.610319576998243
33 11 0 33.39493453336595 46.265179325891786 13.088937482956403
34 11 1 34.31981787320587 46.323785893883596 13.374179260316108
35 11 0 34.70418025412303 45.80537546320354 14.053477069042543
36 12 0 25.103487916551092 48.46285200813825 37.3002803578004
37 12 1 25.34256079116898 47.68100579607072 37.78435787936056
38 12 0 25.18741936150774 46.772228499752345 37.37002866389207
39 13 0 35.43413232950439 26.82007064427659 45.966914117361284
40 13 1 35.67951418987141 25.91947165149537 46.16644921841448
41 13 0 35.60784276134224 25.274753127281734 45.48383310435903
42 14 0 12.61126051600935 28.835474648203476 23.062908551308137
43 14 1 13.352573468486096 29.194165861474303 22.42387444557384
44 14 0 13.32981808642917 28.161165207469523 22.5496519420973
45 15 0 31.774080138861475 22.425973809534664 43.355444292356
46 15 1 31.66117365477413 21.932895869930082 44.15831138234806
47 15 0 30.755583179632687 21.817152197887054 44.415577665246154
48 16 0 44.147952121095095 37.137477497257805 44.582052050750995
49 16 1 43.60244357471263 36.742401714714276 45.317989389368606
50 16 0 42.75395045508862 36.77619785299203 44.76605918817916
51 17 0 24.019053592514755 39.06924584088494 43.00491007769904
52 17 1 23.617318760809496 39.91351488675936 42.9594820006363
53 17 0 23.033370518297676 40.05789367831425 42.26563031803586
54 18 0 39.95370079358854 4.417047050736239 19.117172786541772
55 18 1 40.522598837471634 3.7896817600889827 18.593343878225365
56 18 0 40.97636441516439 3.337008896878138 19.11672609198012
57 19 0 37.18338935484768 12.388002774922096 15.168095937774847
58 19 1 38.039028406350724 12.419593138490816 15.5446305846581
59 19 0 38.52422979682103 13.124705973972883 15.21639400304583
60 20 0 11.904195494479065 44.455455361639615 30.470622734180925
61 20 1 12.636202269879815 45.008259642755974 30.71291395887694
62 20 0 13.41041297734931 44.657005673721706 31.17052252600069
63 21 0 9.896769777905376 44.43478862109785 34.56856016989703
64 21 1 10.397113880978521 43.560104337355554 34.29065451519946
65 21 0 10.67644123277201 44.06858809400951 35.153610710923346
