ITEM: TIMESTEP
165
ITEM: NUMBER OF ATOMS
66
ITEM: BOX BOUNDS pp pp pp
0 50.0
0 50.0
0 50.0
ITEM: ATOMS id mol type x y z
0 0 0 27.162822292556722 23.771214060928823 32.30707776441582
1 0 1 26.95902325544086 23.23778391080664 33.054079649373634
2 0 0 26.705161882431003 23.719558222491628 33.870884569037955
3 1 0 26.521502057083143 44.068812895337445 7.558639282880777
4 1 1 26.575406448037036 43.40509343939507 6.877510114587068
5 1 0 26.215744937293834 42.51598453320742 7.287389002226572
6 2 0 38.322536734261796 25.22527612284071 38.42243888089219
7 2 1 38.03498206943004 24.645925456771113 37.79092947899585
8 2 0 37.35057245719088 25.128521879925398 37.32351057332813
9 3 0 16.961318396215347 34.224086635976626 24.519425419471307
10 3 1 16.247557444647345 34.82461750176702 24.152450837884132
11 3 0 15.761475449401066 33.99868325295517 23.92752118112846
12 4 0 33.821771553831724 18.43035251135276 24.592675730652033
13 4 1 33.94608695550773 17.87950905916594 23.842247783865023
14 4 0 34.02620000104992 16.999722314431526 24.074668106953144
15 5 0 17.56810218579233 18.845541465904557 25.609804478235194
16 5 1 17.072418335465603 19.481590309154875 26.028789928178078
17 5 0 17.064398170154828 20.337210220378516 25.643618519359872
18 6 0 12.648581780151321 21.36504592197665 15.245521474034303
19 6 1 12.289168556693316 21.525636447951456 14.442244928229982
20 6 0 11.752068694413017 20.85295461036633 14.674175703870244
21 7 0 36.61155518085299 6.939017751187982 39.08677884819148
22 7 1 37.19778176852192 7.558012665859002 39.606843572667344
23 7 0 36.7364616514677 8.462789222456847 39.42906179832514
24 8 0 6.01977713293281 15.008209047904307 8.749457570893272
25 8 1 5.2422102083442645 14.604480188709335 8.251195528462215
26 8 0 5.090970916300483 13.73411699079809 8.24267933870971
27 9 0 26.564647820995162 12.705522354751968 27.89797200911037
28 9 1 26.629029238127657 13.588198366485551 27.723938683152248
29 9 0 26.026910622920962 14.139621221722766 28.222414306524712
30 10 0 33.76142985205922 15.426708035294922 10.572737644011555
31 10 1 34.38144249894076 14.762540134129768 10.748834321655355
32 10 0 34.132441025221105 14.477334746833625 11.612266218000007
33 11 0 33.39094446186177 46.229100209288674 13.124855000749426
34 11 1 34.32283718358635 46.326933674715185 13.372272693620713
35 11 0 34.664271532919145 45.79280065192945 14.051592116291593
36 12 0 25.065526774746004 48.40211208087242 37.2104809277551
37 12 1 25.35115099402537 47.67684833844389 37.802661041736876
38 12 0 25.090996913026565 46.908792814181865 37.16165686507329
39 13 0 35.43381307300348 26.816447991349385 45.95847877832206
40 13 1 35.68633900265008 25.925702174497655 46.171403273312094
41 13 0 35.609760193996614 25.294487428419664 45.48783200140433
42 14 0 12.605496743305931 29.00527377548316 23.05098194430125
43 14 1 13.342462623822593 29.17647617814747 22.42932883638117
44 14 0 13.450943241523593 28.194174204659685 22.449168092192775
45 15 0 31.76377652222708 22.42022683794952 43.36039887384553
46 15 1 31.654288161770527 21.92574253338301 44.15549492009809
47 15 0 30.753164091367577 21.81965188893489 44.4087654218609
48 16 0 44.09297193593388 37.15310604786942 44.51104323532965
49 16 1 43.60156484746787 36.73716689024287 45.3314609732985
50 16 0 42.8243086073986 36.846010780459494 44.62183509666722
51 17 0 24.025061280860406 39.07195549033282 43.01471286274201
52 17 1 23.616770811918826 39.91210196291595 42.95875711436832
53 17 0 23.034404638100444 40.06930380027277 42.2739406333293
54 18 0 39.952277592382416 4.420527912330227 19.16239805350265
55 18 1 40.519673820112494 3.7925694026544456 18.59792366459885
56 18 0 41.02800171974042 3.2766404754645806 19.00175591334368
57 19 0 37.19495977673347 12.411941652890373 15.15548054877154
58 19 1 38.04338403089408 12.416195395137745 15.550452015511366
59 19 0 38.505911503897494 13.121687128699055 15.21054274677064
60 20 0 11.946980487165222 44.45997521298201 30.45360474066388
61 20 1 12.666313426604324 45.028354431878135 30.66324171507387
62 20 0 13.403931179613176 44.645686139079984 31.145995529973817
63 21 0 9.614933878317283 44.1138240675723 33.971156120965816
64 21 1 10.3589062051537 43.59867726256078 34.38720641186127
65 21 0 11.048831288755467 43.46005208300694 35.043369272200515
