ITEM: TIMESTEP
168
ITEM: NUMBER OF ATOMS
66
ITEM: BOX BOUNDS pp pp pp
0 50.0
0 50.0
0 50.0
ITEM: ATOMS id mol type x y z
0 0 0 27.16835437797293 23.80296773407623 32.28507676922556
1 0 1 26.958477596545695 23.23540504736947 33.056037394506305
2 0 0 26.707561808479266 23.727298318491457 33.861882386133196
3 1 0 26.574352369391026 44.24138778563909 7.53092949178696
4 1 1 26.570222871699226 43.397348669499735 6.887081267048953
5 1 0 26.244557884033092 42.466868960939465 7.160835469919167
6 2 0 38.39318594111564 25.21354561140707 38.49181132973054
7 2 1 38.03228801974503 24.649031922750456 37.78904100606664
8 2 0 37.32751412249185 25.09091320938864 37.277394468054155
9 3 0 17.005407674995254 34.488752476922116 24.535998731426705
10 3 1 16.25806847968996 34.7959545497403 24.158321623301568
11 3 0 15.562791786035097 34.21827819960957 23.82439232887391
12 4 0 33.823022112067235 18.416195340866413 24.59746309039253
13 4 1 33.9462002276793 17.88127356116092 23.840506852430526
14 4 0 34.025701871672744 16.987946799962106 24.09724845327762
15 5 0 17.598299370158692 18.88016683953367 25.550244876003536
16 5 1 17.067912912645397 19.481072257157432 26.035448243858433
17 5 0 17.10547597525128 20.309814307199215 25.597166357724234
18 6 0 12.807749858793143 21.522890070944598 15.241844507286226
19 6 1 12.287152299763617 21.51594990817744 14.454253970474113
20 6 0 11.62530851095096 20.84980787517512 14.484693383778005
21 7 0 36.69550173489203 6.735663354127239 39.112693701034445
22 7 1 37.18483066294477 7.564219594841883 39.59866522638627
23 7 0 36.8598710629065 8.566479680344655 39.53411951140204
24 8 0 6.012613315399468 14.884186520378861 8.758290517081397
25 8 1 5.237329824615188 14.617370301820927 8.246334807753295
26 8 0 5.1756130893456405 13.651309992152079 8.31107010822774
27 9 0 26.525386804051838 12.68954206462027 27.937144303800185
28 9 1 26.631459171793626 13.59187469519745 27.72108368061856
29 9 0 26.025174927175772 14.093367152362658 28.22997368285317
30 10 0 33.76396063430803 15.472484460880171 10.491223501748722
31 10 1 34.37709877676897 14.764182977108185 10.750690004633029
32 10 0 34.18044580981434 14.417392640575168 11.638875555138629
33 11 0 33.38727273618664 46.18676743787185 13.167233426786227
34 11 1 34.32581484222676 46.33253585347908 13.367666432291129
35 11 0 34.62161940573037 45.74601006601404 14.08396864118293
36 12 0 25.12434938534261 48.62949118491911 37.35921386420879
37 12 1 25.342674711063008 47.671121892529484 37.78292235770229
38 12 0 25.168709688879666 46.77581951939795 37.327151751351806
39 13 0 35.423219642511604 26.796107967940365 45.90930006353767
40 13 1 35.69022750421573 25.926867124124932 46.17833458174333
41 13 0 35.591170688518794 25.33071830141834 45.44843401266769
42 14 0 12.615909305064092 29.14250336743902 23.026692066045477
43 14 1 13.335135321904122 29.16277939687555 22.43556209149033
44 14 0 13.543914506766939 28.252154618290913 22.36622355358209
45 15 0 31.73167733930174 22.422354542155247 43.3591098623543
46 15 1 31.654677347938502 21.92239915235162 44.15627059558325
47 15 0 30.74238909796511 21.83592010165857 44.38366025351231
48 16 0 44.37091756832327 37.120190305108224 44.74909750437777
49 16 1 43.592581852402 36.74785508234948 45.29864115053197
50 16 0 42.690485260746435 36.70841929926621 44.90899138632457
51 17 0 23.982552020390262 39.04787499845952 42.94407451907458
52 17 1 23.619324196211526 39.918416666844784 42.96608461801508
53 17 0 23.035543696074853 39.98981096881635 42.22928716537436
54 18 0 40.0339137022851 4.337193954559141 19.219910731436563
55 18 1 40.511215802398 3.800762568170401 18.586184075350097
56 18 0 41.08271525044139 3.22568597725087 19.133133512132446
57 19 0 37.16859796246984 12.385188327869436 15.164475450782843
58 19 1 38.04309678542137 12.415747202600551 15.55100010693191
59 19 0 38.55566125649485 13.145631150836175 15.215071161580916
60 20 0 11.966120204818429 44.420402340663415 30.466509152052343
61 20 1 12.676205752364156 45.03892916124538 30.647465713680155
62 20 0 13.379408170628233 44.608985359000904 31.138701012292103
63 21 0 9.90225444735236 44.39929050355663 34.532063287343405
64 21 1 10.353842890621115 43.536697949349275 34.361692540395964
65 21 0 10.688826437948984 44.07404604541508 35.13775463131067
