ITEM: TIMESTEP
17
ITEM: NUMBER OF ATOMS
33
ITEM: BOX BOUNDS pp pp pp
0 50.0
0 50.0
0 50.0
ITEM: ATOMS id mol type x y z
0 0 0 27.332251095480157 30.162281284703006 31.078437520288514
1 0 1 27.114285147799784 22.123238319608532 32.64126032466361
2 0 0 24.066146515773923 35.13873463836137 41.69752580637119
3 1 0 22.76251668770083 42.01845685958819 17.406678029153476
4 1 1 27.557475205081822 44.955745756326 5.095901368169964
5 1 0 14.282680814332101 19.76449347267974 25.963151057403756
6 2 0 39.123370516886744 35.30645200307359 44.73610932313394
7 2 1 39.06601942904437 23.80857596372356 38.462426092018134
8 2 0 19.969162915652802 28.436518250128998 20.387855554386203
9 3 0 33.376477323494036 31.034758748296564 21.634390490167448
10 3 1 14.47155052659476 37.43575921872874 22.959752194887358
11 3 0 22.377867823818786 16.412118596881875 27.544609337102436
12 4 0 32.02980384546476 25.513360159599962 36.93459391779897
13 4 1 34.023033149364096 17.929802228907445 22.77018155177649
14 4 0 34.54453034000151 9.073980969649467 28.8945775483153
15 5 0 26.32973187372837 13.836997667001928 15.2963182527623
16 5 1 16.37304873350096 18.783998983955577 27.363599279015684
17 5 0 19.506909076515605 36.52590739428489 14.592888567580578
18 6 0 11.316068658547788 14.140669754315658 24.495931940361633
19 6 1 12.4910991294589 22.489312505159592 13.24695980452297
20 6 0 9.852464781306026 12.663286129689302 24.564946396949875
21 7 0 20.73549812035852 8.05814529362169 27.978115777902744
22 7 1 39.259489059846665 6.103453980052836 40.83147875428539
23 7 0 19.62202354843097 30.618823653293127 30.94277320614938
24 8 0 29.479960770003395 23.51616920553152 24.189837257178695
25 8 1 3.4714244595106263 14.350438510335833 7.042628946069168
26 8 0 9.973075099623754 9.300536020161704 12.147298861828801
27 9 0 23.578766729754076 7.268419787136563 31.405269688549424
28 9 1 27.548324474302575 13.41725523478007 26.8805374060945
29 9 0 14.338869035750497 22.372589292454578 38.19323262944078
30 10 0 23.981989023538738 25.5963560504671 7.833906235260967
31 10 1 35.154208692010485 14.603743748164668 9.910646379489554
32 10 0 31.86594104446888 6.64527741513736 28.186107994916345
