ITEM: TIMESTEP
181
ITEM: NUMBER OF ATOMS
66
ITEM: BOX BOUNDS pp pp pp
0 50.0
0 50.0
0 50.0
ITEM: ATOMS id mol type x y z
0 0 0 27.140936597932132 23.838308421547662 32.37485520578245
1 0 1 26.958736223356002 23.2302897993165 33.0548939966776
2 0 0 26.72634680102683 23.781860269823536 33.792201176740534
3 1 0 26.5390990630889 44.01510864689154 7.463018969534135
4 1 1 26.57277022146321 43.399774353085284 6.879514297807254
5 1 0 26.231885322276717 42.651765468192366 7.3434879480394075
6 2 0 38.40595386061511 25.1630505322846 38.4765266019678
7 2 1 38.03183228417582 24.651406613271227 37.7858423201254
8 2 0 37.347258789899094 25.105459623164126 37.30473544435141
9 3 0 17.116204578273685 34.295249562456654 24.595049263113594
10 3 1 16.263167709617186 34.80791599541267 24.16098635328796
11 3 0 15.446627160908442 34.36432519210832 23.764090272287337
12 4 0 33.815727292680315 18.448649410921558 24.645336993099598
13 4 1 33.94743174045886 17.88284443437983 23.83479953012008
14 4 0 34.027722183558545 16.94329807703551 24.137951018197246
15 5 0 17.628759006403186 18.880348861228182 25.50613905751146
16 5 1 17.065104470901325 19.47847673489786 26.040306587956938
17 5 0 17.11538468803391 20.345197235069595 25.56647367528514
18 6 0 12.88029288910554 21.604513497081776 15.224645340545749
19 6 1 12.286405991204088 21.51019459369334 14.4615721085817
20 6 0 11.565538516426088 20.858650926061966 14.379089709150515
21 7 0 36.74389332505462 6.9663061106451085 39.18547528286822
22 7 1 37.18989851022583 7.564664622049333 39.602373652597414
23 7 0 36.73117232263381 8.326729203056008 39.402672913860776
24 8 0 6.020383032914296 14.826985856941903 8.770066246535562
25 8 1 5.234080054735299 14.617406859415068 8.24399655406176
26 8 0 5.2164188876089534 13.704617949628258 8.33362310348327
27 9 0 26.48704814435965 12.65534873389203 27.977713696639928
28 9 1 26.635308341919778 13.590810764590389 27.717103040581275
29 9 0 25.990011619395293 14.125377827101902 28.25901110090237
30 10 0 33.78989641775552 15.46263462661854 10.466568974541497
31 10 1 34.36808505417838 14.768953105924213 10.745158886526262
32 10 0 34.19225924748536 14.418968983465737 11.61045851357178
33 11 0 33.40922015588178 46.14382446769529 13.21996883026725
34 11 1 34.32947642716724 46.33544592826023 13.36639924657162
35 11 0 34.54850666397775 45.74527025487379 14.057443078394646
36 12 0 25.17982070190397 48.45311845958942 37.472096556601734
37 12 1 25.343861764221543 47.67117261068312 37.7842660049786
38 12 0 25.099392877763474 46.96704089325461 37.18381541678775
39 13 0 35.41113673975166 26.813591234688136 45.8758974676826
40 13 1 35.70301149372483 25.936206195960466 46.19005752268867
41 13 0 35.583758480242366 25.357287312229982 45.419453909608606
42 14 0 12.566962391618882 29.275743566048995 23.052409458288963
43 14 1 13.326523740612378 29.14741040402992 22.43672724551922
44 14 0 13.652901844190204 28.230541017236533 22.279775770403486
45 15 0 31.70572724467968 22.437703314955574 43.33003124724381
46 15 1 31.646555481379764 21.908692752898755 44.153863670204466
47 15 0 30.69292633488583 21.843200693608352 44.37296578108411
48 16 0 44.43984587046875 37.07192966134041 44.91295744937344
49 16 1 43.59152506943543 36.75248551056234 45.28635502063977
50 16 0 42.64068593084681 36.6854302081573 44.94223473446905
51 17 0 23.983919716237946 39.013318657992656 42.92608650399542
52 17 1 23.619619887030364 39.92155336080697 42.96970492114754
53 17 0 23.02654019803285 39.9598965854973 42.20031526525442
54 18 0 40.07126287662352 4.301912262078691 19.31289411414254
55 18 1 40.51043504642793 3.8009647459172595 18.588191077866547
56 18 0 41.063610010199774 3.2397160073400846 19.013991513127834
57 19 0 37.165320246397094 12.391111325449538 15.159655072831942
58 19 1 38.049522776901625 12.4114774381706 15.559222985837447
59 19 0 38.56162239225632 13.152035372187454 15.21345085014345
60 20 0 12.027394823352084 44.428709562041014 30.445120383050575
61 20 1 12.725616111901797 45.07099931118546 30.565745913539864
62 20 0 13.37096090455824 44.600693812758074 31.10621417235157
63 21 0 9.8038763930396 44.36097233518951 34.504318291346735
64 21 1 10.307542323104567 43.511012744854895 34.447436745468806
65 21 0 10.680100295420928 44.01421020013945 35.15647368786376
