ITEM: TIMESTEP
185
ITEM: NUMBER OF ATOMS
66
ITEM: BOX BOUNDS pp pp pp
0 50.0
0 50.0
0 50.0
ITEM: ATOMS id mol type x y z
0 0 0 27.159232136023245 23.868653390031227 32.30951633203126
1 0 1 26.95807622489903 23.22849417292487 33.0570824185176
2 0 0 26.71720878878533 23.782759310766814 33.82308694284477
3 1 0 26.515736794019 44.18254784069511 7.66532659172132
4 1 1 26.57560683910844 43.3888822968059 6.861818307444488
5 1 0 26.20762600241756 42.657796994129725 7.422341973936717
6 2 0 38.3870071757158 25.238880206460916 38.49874403468696
7 2 1 38.03363848312127 24.64194325579285 37.78119001620728
8 2 0 37.34516528155501 25.181680763434944 37.34476462263004
9 3 0 16.71924000907433 34.17248885257961 24.4002604009846
10 3 1 16.275770093301038 34.82743789749432 24.166977212606476
11 3 0 15.665655739365342 34.21948028008616 23.875890739968316
12 4 0 33.82660623294593 18.41969445581622 24.555636951714767
13 4 1 33.94727962996651 17.88079300140975 23.84285744364365
14 4 0 34.02377698735245 17.009112279656986 24.0978698962797
15 5 0 17.58639337690951 18.855735166153966 25.578459858887058
16 5 1 17.070921413672778 19.481683429855565 26.03032816319719
17 5 0 17.063255139948346 20.31664302085001 25.65472367841396
18 6 0 12.805928838095385 21.498527344077004 15.277062511459576
19 6 1 12.28818682311069 21.51890752037052 14.45042359829001
20 6 0 11.611668948803853 20.824724583894376 14.503265662341773
21 7 0 36.59114195697587 6.815560230003598 39.05170573318737
22 7 1 37.20590151460839 7.569976793241715 39.61465329522502
23 7 0 36.628118531001846 8.3918603024872 39.34017711893185
24 8 0 5.992620620616968 14.940905267516158 8.737923968468023
25 8 1 5.242879487799059 14.61690487498114 8.250182215621145
26 8 0 5.102323131520476 13.597698322588636 8.265832838940307
27 9 0 26.526277847919044 12.693990816918099 27.935604616101774
28 9 1 26.627654413338796 13.587901649428456 27.724570435968552
29 9 0 26.069528762465186 14.127291074445967 28.183487010050566
30 10 0 33.72522671252975 15.483519874419128 10.531288281576991
31 10 1 34.37474577155498 14.765766772083005 10.736651240342836
32 10 0 34.11723360332475 14.470236587867086 11.637814730806896
33 11 0 33.384604928742725 46.18422538701627 13.169139840184007
34 11 1 34.326218620751234 46.33392543458378 13.366863288895996
35 11 0 34.62756106867075 45.730095098490885 14.102698428725104
36 12 0 25.065368510834073 48.574503547255475 37.223651550047286
37 12 1 25.35547460943641 47.654027663418304 37.80873547315212
38 12 0 25.029644946189254 47.1248604211445 37.037954943334036
39 13 0 35.436460194298135 26.8060376461327 45.94813186945706
40 13 1 35.703295504130864 25.942353535544083 46.184376726276206
41 13 0 35.61132032090304 25.32654370042251 45.47700727754394
42 14 0 12.58780550894586 29.368007791535938 23.024626366465046
43 14 1 13.320075447376961 29.135828903208914 22.441014572534755
44 14 0 13.711053293450565 28.281845563242427 22.22587727708865
45 15 0 31.737841695613017 22.40616433779958 43.372359330108274
46 15 1 31.637275342810415 21.907927942690193 44.14852154332987
47 15 0 30.74553620355155 21.825920094134194 44.39183408358242
48 16 0 44.1852474062585 37.13073943507783 44.61960516109349
49 16 1 43.59093570772322 36.73875065307261 45.32215886523539
50 16 0 42.905407255170594 36.84726378875346 44.662889223265715
51 17 0 24.017759224175933 39.07267455037714 43.00598925196548
52 17 1 23.617696252754314 39.91230002905957 42.96217461560484
53 17 0 23.022572439630224 40.04413791214773 42.244318270469876
54 18 0 40.05118970503458 4.31843108535613 19.227959050326746
55 18 1 40.50319586731776 3.8088389232819666 18.59717377306677
56 18 0 41.20130562991414 3.0915831538621505 18.957062545965243
57 19 0 37.19983805256719 12.417640483794742 15.155293953196288
58 19 1 38.051342098521445 12.408925742985241 15.562669934139091
59 19 0 38.530815427082835 13.148930228647536 15.201576091253397
60 20 0 11.999305502822148 44.47493974740222 30.39409574080689
61 20 1 12.74120572825436 45.07395686202073 30.544025829717345
62 20 0 13.406843094617289 44.66378853574507 31.089546482196845
63 21 0 9.411353401589515 43.97898863067883 33.89268308702285
64 21 1 10.284225089679909 43.565371717263524 34.50489433152641
65 21 0 11.187062586825185 43.37106104125024 35.26446585815261
