ITEM: TIMESTEP
196
ITEM: NUMBER OF ATOMS
66
ITEM: BOX BOUNDS pp pp pp
0 50.0
0 50.0
0 50.0
ITEM: ATOMS id mol type x y z
0 0 0 27.139521572727503 23.82154321950336 32.38108054211898
1 0 1 26.958360379668317 23.23276568174877 33.054973121189654
2 0 0 26.72809517931243 23.769192134039667 33.78698203168053
3 1 0 26.53831949087824 43.93573148689803 7.403043027450622
4 1 1 26.57139852846138 43.400119677950485 6.882027918296599
5 1 0 26.2455596715018 42.72236913530863 7.35525220174631
6 2 0 38.392998370253636 25.16626294102571 38.463561403117914
7 2 1 38.033030035552024 24.647364263331145 37.779759573450896
8 2 0 37.372852275096854 25.169500971130255 37.36569767032166
9 3 0 16.83691826301765 33.883662575966504 24.464422511253975
10 3 1 16.28404251612473 34.84559907556783 24.17108625286368
11 3 0 15.487689766947733 34.353738460716436 23.785091333368047
12 4 0 33.80917018864765 18.498979619837694 24.65950930587092
13 4 1 33.94878440936892 17.883260459244408 23.83236162073629
14 4 0 34.0308554157062 16.902656272165597 24.159325948360582
15 5 0 17.646845131639417 18.821420714210188 25.507203052438744
16 5 1 17.066351397897858 19.477599862700558 26.038424123660437
17 5 0 17.071582159919025 20.410618474945597 25.599239651395596
18 6 0 12.85426186199966 21.561456244829618 15.252121021170012
19 6 1 12.287664120298253 21.514072463100476 14.456661672619697
20 6 0 11.572491467658063 20.837612518748074 14.422957677040165
21 7 0 36.808622807376445 7.034922592766691 39.24295591407784
22 7 1 37.18456273107891 7.56567568795294 39.598777995605445
23 7 0 36.752799233639514 8.239424458427015 39.40356888603352
24 8 0 6.0142573269293145 14.906154198958566 8.75688455008972
25 8 1 5.239410218245821 14.6122667920177 8.248216218463508
26 8 0 5.13293978588643 13.70351133899169 8.275394380533283
27 9 0 26.479742587071254 12.607878371856994 27.990685085498264
28 9 1 26.634739759346022 13.587120190686411 27.717504388421496
29 9 0 25.991369281275418 14.207640383968611 28.247088707230624
30 10 0 33.76764106583038 15.455182469954492 10.511983812546578
31 10 1 34.36451397970867 14.77129890450762 10.732360547602328
32 10 0 34.1377650520506 14.474465545132404 11.591769346514774
33 11 0 33.41082554731778 46.174037569531976 13.189661961337727
34 11 1 34.32733996978988 46.33264986540599 13.368946355378299
35 11 0 34.59045515329718 45.763429934752196 14.05449111282701
36 12 0 25.167823511517135 48.310975207560865 37.434857881539145
37 12 1 25.34741135490067 47.669472250951245 37.79051919670931
38 12 0 25.061097271192523 47.156175459376875 37.109687251667886
39 13 0 35.415940944933375 26.865814363995906 45.920658882687476
40 13 1 35.71577064178585 25.95058966776016 46.196181993113974
41 13 0 35.60656186494851 25.317338482262926 45.43378143101759
42 14 0 12.549628548101094 29.413290083314404 23.051898947165856
43 14 1 13.315405273569846 29.128011397902668 22.438443370896533
44 14 0 13.750429459300067 28.234808708148236 22.19997054250725
45 15 0 31.724606516657676 22.44558019133913 43.30734099424718
46 15 1 31.631580284343816 21.89381130434135 44.1475475869504
47 15 0 30.65629189509899 21.82698430565389 44.39879109101555
48 16 0 44.21489193935369 37.08485523850698 44.755954257826694
49 16 1 43.59262030518464 36.74351774672868 45.31098462071405
50 16 0 42.850923899822554 36.81957696529603 44.70582698331587
51 17 0 24.04008875558191 38.99438452551033 42.99030614222469
52 17 1 23.61823920172225 39.917930031036256 42.967526325377
53 17 0 22.988790590619345 40.01875705311982 42.18480738622237
54 18 0 40.07766775712018 4.296464622692421 19.355478626757378
55 18 1 40.50797611395275 3.803092343359207 18.59679243915202
56 18 0 41.1038227067541 3.1883162108760263 18.84131891559468
57 19 0 37.1672362598799 12.410555334505933 15.146845893527283
58 19 1 38.05802560894705 12.40486436228143 15.570763333922498
59 19 0 38.556314810032724 13.16810087128056 15.1988770570839
60 20 0 12.034544271194612 44.503895900266826 30.355112779299482
61 20 1 12.785732289840658 45.100514244969645 30.47024409192311
62 20 0 13.42801246174802 44.678313052950806 31.067966910693627
63 21 0 9.52443592973372 44.033170917101366 34.119399640982
64 21 1 10.244247639821593 43.517409681028965 34.57328340732857
65 21 0 10.94048822273188 43.61970988881055 35.18601176749197
