ITEM: TIMESTEP
20
ITEM: NUMBER OF ATOMS
33
ITEM: BOX BOUNDS pp pp pp
0 50.0
0 50.0
0 50.0
ITEM: ATOMS id mol type x y z
0 0 0 27.31293410972079 29.475466594966594 31.2143251259676
1 0 1 27.0980642465611 22.24045780158569 32.68456069241197
2 0 0 24.344997759231386 33.95003828888827 40.86883290146964
3 1 0 23.1921373062317 42.27733653897066 16.300323688088938
4 1 1 27.452200466323138 44.79064417806872 5.288248792863348
5 1 0 15.53744903613265 22.147245077390593 23.991939406234135
6 2 0 39.1132836041261 34.271237411081444 44.165952103527545
7 2 1 38.95473254818748 23.900213135146345 38.39203430732413
8 2 0 21.75984020803836 28.005538156873456 22.08428147312334
9 3 0 31.62827171206857 31.621902817460406 21.758290087117956
10 3 1 14.626550429610463 37.27672796280692 22.978731753844382
11 3 0 21.646075238840343 18.3694746762394 27.117036827650754
12 4 0 32.212296262228676 24.81736300529968 35.640152463204956
13 4 1 34.014545067724676 17.924153451442567 22.8847806408462
14 4 0 34.49784889793186 9.860359509150504 28.355432722405705
15 5 0 25.418870564307966 14.294536868832644 16.397948876068245
16 5 1 16.44803879264975 18.858642676529566 27.220687652063017
17 5 0 19.217935565045366 34.874063271447234 15.777851171284938
18 6 0 11.422037510924596 14.894665152168391 23.479764460218313
19 6 1 12.469478832000046 22.386372069422443 13.374747521364121
20 6 0 10.09242064783243 13.556337719484324 23.536510312717198
21 7 0 22.455244876530394 7.882656595749706 29.172403994977937
22 7 1 39.03642395233582 6.259066986405232 40.6986923787711
23 7 0 21.47131844169228 28.304504179146868 31.873066994177854
24 8 0 27.026720425502642 22.649785858606624 22.572640707106178
25 8 1 3.659927781060003 14.376825406856176 7.171370573172929
26 8 0 9.410262142570394 9.744728990319672 11.704629276004127
27 9 0 23.918571193329417 7.8016078751020235 31.017071365671537
28 9 1 27.450789812753882 13.43578845230025 26.970124276743768
29 9 0 15.559618167285265 21.542868014279822 37.14804152748404
30 10 0 25.001849469826983 24.589996456620064 8.028366273328853
31 10 1 35.071608297627776 14.62038209898981 10.004345277959658
32 10 0 32.16768697612836 7.385423271006425 26.492465373225283
