ITEM: TIMESTEP
23
ITEM: NUMBER OF ATOMS
333
ITEM: BOX BOUNDS pp pp pp
0 50.0
0 50.0
0 50.0
ITEM: ATOMS id mol type x y z
0 0 0 27.300666421514876 29.11396222009717 31.290014648918174
1 0 1 27.085827294265837 22.302616306611068 32.711673960362106
2 0 0 24.491758121287255 33.32091976260593 40.43015278706445
3 1 0 23.41778768757459 42.410067881651365 15.718497737718586
4 1 1 27.39650542526473 44.70340413074117 5.389839540194048
5 1 0 16.202291586688126 23.41142374730785 22.948539171565987
6 2 0 39.10338484970607 33.722561805493996 43.85902990497839
7 2 1 38.8960278928651 23.94855040992285 38.35480351260941
8 2 0 22.710564637063598 27.779525690037666 22.98642469196402
9 3 0 17.64748200009629 17.493807682332793 18.213500145189887
10 3 1 13.724225510522706 36.37359600262257 22.608064252545425
11 3 0 20.654205585658005 21.13196761882245 30.920153940151923
12 4 0 32.309261976151866 24.445805180295032 34.95432968816544
13 4 1 34.010061632109185 17.920961588790348 22.9453284450977
14 4 0 34.477949844593354 10.260300667876683 28.07781872115004
15 5 0 24.935678327295076 14.541859657123506 16.97943688460591
16 5 1 16.487392653524292 18.89828250627561 27.145484373431152
17 5 0 19.066888205359046 33.996014039934224 16.404112112255774
18 6 0 23.998868912991387 22.009043951589693 21.24999832948065
19 6 1 48.00250197136156 41.072378302747104 8.238341577774333
20 6 0 22.80520742728461 20.64882332420502 21.264305624003832
21 7 0 23.363958359636378 7.796096315281411 29.8027662981828
22 7 1 38.91856873393728 6.341267402696347 40.628603413381505
23 7 0 22.448202336758637 27.07634495364991 32.3637795623075
24 8 0 4.513505608996027 29.989106354344045 40.353626332634796
25 8 1 3.3680010643999543 14.552980343819941 7.552387530547782
26 8 0 9.071063816840548 10.005964995113402 11.506967089333283
27 9 0 24.094082199812945 8.093070824723268 30.776397762943326
28 9 1 27.364955471795195 13.491794426206974 26.649052900964463
29 9 0 16.20413788236207 21.105394221144483 36.55529193087031
30 10 0 25.542514407612117 24.05457375332527 8.135855658425408
31 10 1 35.03152900127523 14.688820366543423 10.034883706901532
32 10 0 37.88827246403928 42.01344383435171 6.596658813591355
33 11 0 18.10979642410917 40.70774700485582 13.126730371283998
34 11 1 35.42253229523447 47.13080091011712 12.950452824279074
35 11 0 32.3283948576804 38.44286671855302 20.78213076216034
36 12 0 26.940458392448974 42.64658857157688 16.477037284002673
37 12 1 42.59607720874925 38.243691316784236 9.881394180215219
38 12 0 41.71568764513908 28.758298746795806 27.288934127809434
39 13 0 32.51003183619599 34.85196574409115 40.84616296260635
40 13 1 35.930153182289466 25.5174271114693 46.901358509749834
41 13 0 34.07485669691639 23.20833625503301 38.54607819243911
42 14 0 7.434444037955547 22.582066069563172 27.48148200159005
43 14 1 13.875667872132576 29.963261682964376 21.98831377873925
44 14 0 10.34810172211091 22.411374017349015 25.22685043934433
45 15 0 30.863963275605975 25.358838310197843 38.37836982952242
46 15 1 32.10668508987359 21.783482530701647 44.4695660304166
47 15 0 25.033984915171786 21.74855160769453 44.602977783835904
48 16 0 42.73892315152011 35.522032376677686 26.763219045205226
49 16 1 44.633820827396235 35.93007077104219 47.314884511745525
50 16 0 26.48804618504644 39.59059938780499 28.41207285389597
51 17 0 37.445253044051476 15.365899802780877 32.9043103076326
52 17 1 46.182636698266975 23.34074559486663 24.38279297570528
53 17 0 23.94178503964953 29.715431500295246 23.00485117664914
54 18 0 39.35558596939433 22.25141352371717 33.62211328813796
55 18 1 42.410052429207525 2.113395951315589 19.159449297586512
56 18 0 39.35059233827074 5.250283342921949 22.59130013135033
57 19 0 20.963143276197396 10.810497553424618 8.819132337983124
58 19 1 38.77053021382268 11.878212580799236 16.306154747625087
59 19 0 42.78769557631064 23.499134346528784 9.082150885633075
60 20 0 10.096202715764495 38.32548112206943 29.781236697329344
61 20 1 12.229760441709212 45.746292715328664 30.817115944740607
62 20 0 19.55855739841763 37.67440644664977 33.68460001895298
63 21 0 12.320503365521525 33.19875839447208 22.9306629016496
64 21 1 9.950041273193753 45.31857923251983 35.43781805806096
65 21 0 17.078912875687077 28.79245733721838 24.430969638538148
66 22 0 18.187107638150938 20.191732574846846 12.591595395880303
67 22 1 32.8497625823342 18.50139629836339 9.933477272214237
68 22 0 17.490640126881132 11.039304037023172 21.715220973969625
69 23 0 35.471285331095245 18.920484454512376 39.16761908236478
70 23 1 47.618098707009906 11.028705384406436 33.64771561507726
71 23 0 30.762585618545874 5.997241832288846 35.687879865248334
72 24 0 28.215672585387342 25.24243468100392 36.0365433242524
73 24 1 39.94496596898047 31.337139539882912 42.168521968171504
74 24 0 27.181168954119443 35.62126862157875 26.083178028913405
75 25 0 47.346227154257264 35.03372803286781 11.348675697426225
76 25 1 46.25898610133823 36.1756576728476 12.311271320600143
77 25 0 28.712563929400286 31.12406773622312 6.882816690549512
78 26 0 16.673619055596188 17.61645006796821 23.685646440645858
79 26 1 23.42795212075623 13.758702962044913 28.80067685603893
80 26 0 33.44184236078144 9.763682892444795 27.37610777067131
81 27 0 17.19316941368727 22.8400115024396 14.012711131574688
82 27 1 27.500654933801382 10.229927177086902 8.819566978304545
83 27 0 26.103736361394528 13.791462524396733 27.571856980947544
84 28 0 21.930004704725825 32.486335965415755 37.184879753377814
85 28 1 6.527968398375712 27.51168621317496 29.184179848909668
86 28 0 26.723709536666263 21.120524532958857 20.6764662619875
87 29 0 19.06747727473829 19.5096578060305 30.483892304928748
88 29 1 32.44812727245287 36.96097530723181 15.22556232836662
89 29 0 31.086060462317885 20.515483435348056 19.5402208106682
90 30 0 48.47308548847145 28.20205909569848 31.817416931277673
91 30 1 48.072370450981154 13.409130965553146 46.065060233708095
92 30 0 47.56942809504038 26.398483581546362 39.0278111362971
93 31 0 20.66413747394231 5.723653018928449 11.02988573969274
94 31 1 30.06802641392775 2.5669325929318996 17.623655963790473
95 31 0 25.448840790082517 28.50753281460411 23.964629475792734
96 32 0 16.363580571810626 36.099210025687796 14.086721562312999
97 32 1 7.939814296758643 39.93772326207306 9.617866027898577
98 32 0 16.554775702601283 25.7815291260204 7.227868993347545
99 33 0 43.848713851744 43.557960509931874 32.80089983496533
100 33 1 44.173899290240996 38.15290573167587 18.232660039512506
101 33 0 28.379531916858404 20.074313164578896 38.18786024188603
102 34 0 3.6713030035301726 20.03690125592985 22.256763052751502
103 34 1 0.8572158320087073 36.41704371237858 9.01471809797637
104 34 0 2.3563008669053436 20.90712340311771 20.947563498608634
105 35 0 26.447729812245576 26.85075898639986 23.333908409623927
106 35 1 39.74109739249366 31.531343171940787 20.089602596919843
107 35 0 23.75318811217976 17.822983293920974 16.93644808366723
108 36 0 24.969963351701356 28.500981383085612 34.84675218313039
109 36 1 38.4282462256965 48.0381371449037 48.07581182667367
110 36 0 23.071910479767535 36.763888877356806 19.357186687219045
111 37 0 24.19011997739104 29.0472034633385 34.06931935534539
112 37 1 13.787508364292334 19.30110030966586 29.162830086566608
113 37 0 13.535593925223699 18.79641918740714 19.30928396067868
114 38 0 13.813960848231757 14.092402876849944 28.037764935627
115 38 1 5.168322876993408 25.920381308512688 16.61818256068627
116 38 0 16.096600325350984 37.771147596755505 24.939956986117878
117 39 0 13.785556794829159 27.50382958530809 20.149522923579955
118 39 1 25.446424321319203 33.25847199343922 15.251668654915811
119 39 0 16.235510536237584 26.622965159380126 31.22316065429569
120 40 0 15.81717421200003 44.471023340596496 25.3828779321857
121 40 1 22.858679098516347 43.40702245187152 23.72319416269613
122 40 0 29.537761564942482 31.80039214775483 34.321720607949224
123 41 0 35.66292768005829 33.74216049633209 14.838907928316292
124 41 1 36.84834972200094 32.12679246071692 13.204615149771486
125 41 0 22.714940110681532 35.910095278244135 30.24082039617635
126 42 0 23.003853138562793 38.48549349933448 36.214427883714656
127 42 1 23.300967297956806 47.55102501464413 29.62697289817509
128 42 0 32.241976542218715 46.55904461182828 35.15742690828237
129 43 0 5.91792394454176 26.3982943350946 16.90876953055687
130 43 1 4.469134026584504 20.900464295737194 14.198536834189522
131 43 0 23.02469151732055 11.43112080156871 30.67266730426706
132 44 0 13.531093062105674 19.1865307498001 23.31315646825471
133 44 1 9.391115589268294 20.806204192428666 44.99398877601878
134 44 0 7.141275693134401 34.01400584413529 44.507350238491604
135 45 0 26.482908667898123 9.492466204592619 6.499380390089411
136 45 1 30.29094070076794 2.8577214173758687 1.260781775328535
137 45 0 27.767862164442498 19.27417392705693 2.311220999928305
138 46 0 6.426350870243285 9.72131196352277 18.289519811012354
139 46 1 2.3779793806388176 7.311086497582768 29.879727496164037
140 46 0 24.925230574135647 27.864859768060263 25.423890975567236
141 47 0 10.135005540002341 35.240486765887454 41.222724786290925
142 47 1 47.0315014789701 4.5336000016579225 38.59690760515925
143 47 0 31.20882548563356 8.029509583393901 35.94913280692577
144 48 0 9.461565623369372 25.757100405898658 15.504424137492517
145 48 1 3.0142516195886717 17.129475865060332 2.836070511880931
146 48 0 20.799098462607926 19.40077598540469 11.594582357712309
147 49 0 27.767860319229246 32.81638463631774 23.233054539912292
148 49 1 13.778641507666396 19.27527004798812 39.91084966396503
149 49 0 30.992343735383578 33.410298222875426 42.705273952100704
150 50 0 10.819801950920832 48.34916570189599 12.330243988040301
151 50 1 6.73097293061748 46.52900168833703 12.526590109300662
152 50 0 29.150141179411253 34.04385420796076 26.607727335010917
153 51 0 31.495192897504406 25.119404352988237 15.528065318331876
154 51 1 18.997751558396445 36.159102508920355 12.221699748316997
155 51 0 13.580627947963704 29.363376741046967 13.7171160817264
156 52 0 44.47176189516269 21.56919563151512 33.918203903486386
157 52 1 46.971430151445176 31.271565831807262 42.58498542138931
158 52 0 47.021456926805655 34.709509303149474 38.65170004716079
159 53 0 26.317737239987647 32.263551286053925 15.375501130249031
160 53 1 5.4106965455153775 15.458613756099439 8.73491658001396
161 53 0 12.843176751545306 10.821539131853331 19.3385197996073
162 54 0 18.974610050156844 35.54945790973537 39.14819903628331
163 54 1 14.815946272180076 32.031829859669116 29.89777666404328
164 54 0 31.816198033824183 23.332186810858285 28.634847829374735
165 55 0 13.151999860576915 23.789353945365697 18.385854124862156
166 55 1 12.615604918268168 25.27726911567228 16.28752342741178
167 55 0 15.650896885309821 25.771565751706337 26.941838061114925
168 56 0 11.02621904700072 29.46831753136859 32.55254770963008
169 56 1 5.596413087924258 13.275287178239035 22.45979230135786
170 56 0 5.316354384466177 15.208946399691863 29.801215018473236
171 57 0 22.782226342763778 24.393686988528806 34.51352218012279
172 57 1 11.970827212773441 17.807268436657964 33.27017426805747
173 57 0 27.603379625340395 22.347597689847913 23.82567201450998
174 58 0 9.83465996365864 31.01849037781769 22.54743987406317
175 58 1 17.68675574999121 26.61087840955729 43.36395486358098
176 58 0 11.299759844176016 23.455327678179682 22.934254878463783
177 59 0 14.115202628961406 19.0206135552526 21.390147613902055
178 59 1 11.41854796504685 7.381490051327814 28.972357936958595
179 59 0 22.880172093512645 20.147304981301623 38.16004679749369
180 60 0 14.6253390960441 40.06709935089624 15.868460192708499
181 60 1 28.711406612222238 47.43989377780403 2.458349772123459
182 60 0 31.94247568186164 44.15462983618025 13.804404996034412
183 61 0 21.25202226601443 34.21218276619564 19.1404760773291
184 61 1 21.512268568589793 26.098588625802442 33.486891699883216
185 61 0 11.927645123415328 20.04557469266425 28.356934672241774
186 62 0 19.438144555716192 46.53511166601674 36.93213233706933
187 62 1 7.998232840563026 48.557843540263384 42.68889163016228
188 62 0 17.323449406309887 42.09863015277533 34.344257079962716
189 63 0 45.826970146628796 22.27679470787533 28.830648719212345
190 63 1 45.190101779721886 4.395237485951154 10.132732598953279
191 63 0 32.5815254877817 25.326933347225268 12.279261914521712
192 64 0 38.97535478841282 23.754973734548642 9.495597165324641
193 64 1 43.77694699942583 8.946991189406214 32.486986988962734
194 64 0 32.98586335971042 6.174859115493703 33.83981829416854
195 65 0 8.153438145827845 23.361677620129598 19.728007646536344
196 65 1 4.601130262994797 43.713849781914284 35.64344912954805
197 65 0 24.36487303891405 39.015146247992924 31.325053758496615
198 66 0 19.183229965703507 34.602008014714414 33.187267363490506
199 66 1 22.845465890305203 19.775447740839596 47.60227613655612
200 66 0 15.769602016828147 17.891260850950104 40.921171453359875
201 67 0 8.508024105371758 21.584961053846715 24.69391253427281
202 67 1 13.99217217236141 12.789036120114195 25.42004591767246
203 67 0 16.328326437690134 17.858884315516875 21.020712347170022
204 68 0 33.068092353545666 18.157453093699058 18.581590813495364
205 68 1 18.199232322050786 29.46545656379138 31.65048863025924
206 68 0 18.845206205214915 39.8532846616732 24.787471890271846
207 69 0 42.01226531594122 37.63613324549128 39.222259170577004
208 69 1 48.0172743563809 43.2845178929956 37.36637507118286
209 69 0 41.61074104755323 30.333714372557942 22.60381202360818
210 70 0 15.8133333088098 28.135297617670886 40.047530028669975
211 70 1 24.89878812192048 37.044063285096364 46.91619553633876
212 70 0 15.646878139226795 21.560647067149585 38.424778083873115
213 71 0 42.83305930837047 31.557533087201637 33.15306731125786
214 71 1 47.80488535942721 21.141033072620335 19.96113107384487
215 71 0 28.002647266429403 27.443130316946007 26.14341154704995
216 72 0 36.45384915681692 8.260281116047526 17.099056802556532
217 72 1 29.879646421094268 11.592542401902712 9.382465238803094
218 72 0 36.395317499541996 7.269862504162164 16.41180264890569
219 73 0 13.326422792797374 32.52550922755476 27.819615537850552
220 73 1 20.491919935400947 41.57514669885623 7.593430677031938
221 73 0 17.12403749172685 31.015190249722536 13.527788298433032
222 74 0 28.03864007655216 25.614187523704558 20.53570052092567
223 74 1 22.670108683429593 33.52976844424514 5.982701534867429
224 74 0 26.590741079153233 18.84561343162923 23.13465648224192
225 75 0 19.49787792382852 28.292842095756416 23.782901525302726
226 75 1 6.651444141441551 20.174440102678588 20.960403125850945
227 75 0 11.183507268209695 10.758542470311713 28.85840382447578
228 76 0 18.528776633514077 38.56819846518965 20.588358207579038
229 76 1 31.2989467010266 46.01452899246929 6.725153713889692
230 76 0 37.365087441623636 24.288787101836487 16.35537535450219
231 77 0 15.315372388952724 14.089862616545801 21.841286461326032
232 77 1 10.830123748332829 2.2429339223256 25.234169708887894
233 77 0 26.207512341678203 10.190683663121328 18.330138892632448
234 78 0 4.731077610119473 8.250877015823272 7.7336083639076145
235 78 1 6.111135782892792 12.211249695547135 4.429235584753026
236 78 0 4.414695306003338 27.852043720631134 6.042999179211439
237 79 0 18.20273585249297 24.684189984066258 22.406131308085087
238 79 1 8.836734249799028 11.064935622292982 22.202908797347643
239 79 0 17.501016869991197 14.097871175209294 30.628447029502833
240 80 0 41.02958854235891 33.42185037182841 22.38767399808939
241 80 1 44.25854201005201 21.328593135486475 42.45352286871119
242 80 0 39.474922665686314 35.09368997572524 40.47752865955151
243 81 0 18.369299909748552 19.442813200285364 21.62997218396883
244 81 1 18.710207433324925 13.40918405168678 24.70532364987885
245 81 0 27.06589608269442 12.904148658465857 30.869624498367745
246 82 0 26.725798268457726 4.1855532944605915 5.915590280768902
247 82 1 46.70815071497929 0.5455519956466687 9.789689643952276
248 82 0 39.039901025255126 2.236483454853531 26.747881326825517
249 83 0 25.772990865891693 37.94011129625767 35.64786476330321
250 83 1 15.746917843368939 27.440881629198483 45.166915522253696
251 83 0 7.632281541706776 6.481498996988721 13.207159910635431
252 84 0 17.33175609578699 20.951103165719196 17.775171197856256
253 84 1 16.181649905448094 40.85982337818018 23.240355645706863
254 84 0 19.162199416364533 29.197294703637795 33.605210937905454
255 85 0 47.4296271326551 44.56687673738412 25.734120978930292
256 85 1 47.18194502186747 39.01302806934296 32.57409390456573
257 85 0 30.07353683693844 25.14577940708867 20.770942438894657
258 86 0 35.44735100722113 26.42798746978099 32.257171453674566
259 86 1 24.816519970120922 37.65778997770855 41.620613666427474
260 86 0 15.745622549850356 29.632474442866656 41.9974178259124
261 87 0 28.29455875554782 4.68627785831456 14.273366829578006
262 87 1 15.684448645714276 4.543342233590114 20.566297894586942
263 87 0 10.39704896513089 16.430462033620874 16.540828678628912
264 88 0 37.779915348907736 12.67246249760757 30.633729301012487
265 88 1 45.09274354220013 19.313078978785313 12.914231269916113
266 88 0 29.087054330178127 21.796339023515774 7.298340194964346
267 89 0 44.402920609365076 22.740381056932613 32.48812835460221
268 89 1 39.731482658889234 35.158420554661376 46.56328467960666
269 89 0 28.648740052378304 40.14819613572225 42.71259261671944
270 90 0 21.234320147934874 21.971474124072586 8.770471816452574
271 90 1 41.51080799105319 6.964253321243007 11.395750921399127
272 90 0 25.863829747973483 13.255646559190904 24.129964666024573
273 91 0 21.535676771715863 14.75362719803393 4.294343481034967
274 91 1 16.023945208990998 5.410887413290785 8.602471188610568
275 91 0 26.14067596896882 22.04905467138742 44.656877708551065
276 92 0 41.65098753729556 4.337694012482621 21.947584545708064
277 92 1 8.002913603866922 35.03394022192934 32.165378751584996
278 92 0 23.821051303745527 29.801835469679396 38.90985317989075
279 93 0 11.691658635222986 11.844668977318703 21.21570601826157
280 93 1 20.955040316363228 9.281799163935865 7.446105022864505
281 93 0 30.84897259059602 16.30981989349752 25.28290723777138
282 94 0 31.11093638955849 32.11181549149846 27.64958608242918
283 94 1 25.345612533307555 43.44342188213977 36.59084246338795
284 94 0 12.791565427597662 39.23556879886937 41.36998866778385
285 95 0 21.904889343781214 13.27809348122399 35.02209593883391
286 95 1 9.058943339822344 17.56139707725558 45.26900580449793
287 95 0 27.097608222912346 15.937669088538168 31.523185485598127
288 96 0 21.997440114288487 45.67504437315343 15.73564619217926
289 96 1 14.327664932384549 42.7689020327714 24.145518751110657
290 96 0 29.2630342918882 26.295691978539715 25.468455112969643
291 97 0 21.594415007230108 13.335126993885854 23.39868055181016
292 97 1 31.98192510034352 1.161815774021959 4.11071600575272
293 97 0 31.700152498124226 23.548617004848147 19.573373896406046
294 98 0 23.382513355685376 38.80601147006372 38.26736052835544
295 98 1 17.261051173023535 38.693043380803836 36.447975112719114
296 98 0 12.02672399187527 41.02833415856657 29.13111476846573
297 99 0 27.5886175127408 23.619815325876754 35.11798851927512
298 99 1 31.117952750755364 24.966609114089913 41.71906774018898
299 99 0 35.487398258517295 27.074555818377945 22.837093976595906
300 100 0 21.95835797905882 30.22750150269505 27.735338130008518
301 100 1 4.202082116597608 42.18131112514713 43.730372499366545
302 100 0 4.862835546819831 29.8262491971 26.757402940352083
303 101 0 24.387814575904464 26.388859423101533 6.391856934087992
304 101 1 41.039032083729886 9.24776292304305 2.6707473157165
305 101 0 46.94365785120107 16.864342821399962 26.06811701117426
306 102 0 32.14100592821589 19.955645798322877 38.62342796324435
307 102 1 26.273435924190405 24.500425778941583 44.441945580381685
308 102 0 26.94402734813864 33.08302766351127 40.37437490278693
309 103 0 22.95404837430748 20.780669971517284 13.951285313023465
310 103 1 42.626406880463016 3.904496975571793 17.207486358051764
311 103 0 24.33850419190767 12.578410932305378 25.696972644344118
312 104 0 27.06791845826017 7.549200818234286 14.09777626435839
313 104 1 38.80962825312338 7.884386976518366 11.784130711402584
314 104 0 21.916936077551348 21.127038992528266 16.004147713836474
315 105 0 25.70357763303013 37.96347319394083 13.979036341281112
316 105 1 36.139592197024285 39.63600430628003 11.165748557511122
317 105 0 42.5016349546965 24.075500947564958 12.7846712188526
318 106 0 17.244165541119308 29.62598352116272 33.67881329120737
319 106 1 25.138181014322427 41.568085509352656 42.6819488086402
320 106 0 18.28376252148236 36.58894501960401 24.539732927159605
321 107 0 24.311054001982846 26.224215442126457 10.792260897901599
322 107 1 26.04111939075106 36.468278406526665 5.969274793309389
323 107 0 35.079043944291016 36.69697323656735 7.253876389339737
324 108 0 28.673442084970358 26.045842569345606 32.74798380611539
325 108 1 11.15562806263047 26.765523084598506 16.53581693579079
326 108 0 12.94456937938348 28.16629115585473 30.99823325591801
327 109 0 42.93643146050285 30.57305544827338 35.37004288167451
328 109 1 45.414240532379104 24.764144637483135 42.700326928967996
329 109 0 34.58031258949572 22.536128777220046 32.28888181083426
330 110 0 12.077152072517054 26.08601124990383 7.406099188707925
331 110 1 23.24595146169431 35.93705330630123 3.2847007519459424
332 110 0 24.74163185801722 41.754089910659744 7.545693846333385
