ITEM: TIMESTEP
27
ITEM: NUMBER OF ATOMS
33
ITEM: BOX BOUNDS pp pp pp
0 50.0
0 50.0
0 50.0
ITEM: ATOMS id mol type x y z
0 0 0 27.269420001631346 28.127916043232254 31.500064933049586
1 0 1 27.065952775756724 22.4722196440659 32.77031091236855
2 0 0 24.90230410927801 31.589393462402967 39.2110878114998
3 1 0 24.024279765472375 42.74727209723579 14.133002140925667
4 1 1 27.24408813186435 44.46412698974752 5.668385108311329
5 1 0 18.035103883071443 26.901585016227116 20.07707947591684
6 2 0 39.058243149786435 32.21074152528801 42.99343909020861
7 2 1 38.73456628125869 24.08148931282486 38.25276502489309
8 2 0 25.33754158995517 27.165615419932926 25.48510338700911
9 3 0 28.15191430169767 32.75515868589594 22.014275095921654
10 3 1 14.932962612058276 36.962312403724084 23.016261096739672
11 3 0 20.21984075882312 22.266869141198427 26.26058209274507
12 4 0 32.57777982356637 23.41144071322127 33.06494462591805
13 4 1 33.997747438234036 17.91302374204978 23.111498677508568
14 4 0 34.40113200893936 11.444359457399477 27.303150057227366
15 5 0 23.605370700473404 15.24106195349909 18.574724578267922
16 5 1 16.596311281832847 19.006290361440723 26.938088762658868
17 5 0 18.65907144616302 31.56517373064942 18.122658403936807
18 6 0 11.62904194755828 16.382228834126487 21.471803189550528
19 6 1 12.42674207052744 22.182906105815455 13.627320002353411
20 6 0 10.569204317747774 15.324229575061505 21.50331159741169
21 7 0 25.85173356262056 7.580897497721005 31.53884632893845
22 7 1 38.595497569434656 6.566750871236991 40.43623420062984
23 7 0 25.129806392552158 23.685475618066846 33.70673319252147
24 8 0 22.137596620419295 20.909987522733942 19.351156191450755
25 8 1 4.032695192259387 14.42926500671917 7.425929678404167
26 8 0 8.335107056854408 10.645493490957747 10.853167825105064
27 9 0 24.57417542804801 8.879158100248498 30.260804156774032
28 9 1 27.257817164900814 13.472565193043337 27.147350518799016
29 9 0 17.991409191025976 19.87473884642107 35.06791556644021
30 10 0 27.033897137791577 22.564309070424308 8.450478824855502
31 10 1 34.90820613129872 14.653295580855216 10.189704326786584
32 10 0 32.75007416058117 8.884494655632171 23.104607491965936
