ITEM: TIMESTEP
27
ITEM: NUMBER OF ATOMS
333
ITEM: BOX BOUNDS pp pp pp
0 50.0
0 50.0
0 50.0
ITEM: ATOMS id mol type x y z
0 0 0 27.276528469542193 28.378784109187716 31.446694847196746
1 0 1 27.068333618418812 22.429103344837642 32.758439067980056
2 0 0 24.795801548454236 32.03228024837392 39.52520818189662
3 1 0 23.87139491732758 42.66530203530711 14.536117946931133
4 1 1 27.282919018349986 44.52519720399799 5.597312055694059
5 1 0 17.565902682036228 26.007375524542717 20.81141339894573
6 2 0 39.07248535606506 32.59757341086345 43.21785775719838
7 2 1 38.775860062175155 24.047491006496475 38.27879090849336
8 2 0 24.664172745861233 27.321403086364104 24.84372294927345
9 3 0 17.18016176585617 19.750669071218855 18.744051422406116
10 3 1 13.805108212726887 36.119194385161286 22.637137350405265
11 3 0 19.827560072026724 22.945555983939027 29.924633665713372
12 4 0 32.508862947767106 23.677684562844963 33.54842235905512
13 4 1 34.00093164706987 17.91474254183535 23.069117124392374
14 4 0 34.42443681005142 11.127928273929628 27.503111416476944
15 5 0 23.945595980678387 15.059531807335986 18.167515090978764
16 5 1 16.5683139319225 18.978868718770677 26.991244462580134
17 5 0 18.762159599012584 32.18899719344282 17.683944450082276
18 6 0 26.924796767840327 24.332612283448277 19.66369126023042
19 6 1 47.62732242982062 40.77127060547188 8.436886366100353
20 6 0 25.882175780054045 23.14300360663126 19.673875959108464
21 7 0 25.217741144776195 7.633403965613443 31.094971637435126
22 7 1 38.677918073405635 6.509197496603839 40.485357697747666
23 7 0 24.443864372478547 24.553785119711254 33.365241120259526
24 8 0 4.375468858961985 28.093148515724263 36.33057372713737
25 8 1 3.4175678406755865 14.639966381414844 7.831171364324424
26 8 0 8.43640421453709 10.518924983245654 11.080305754997452
27 9 0 23.329118629643677 9.14790473462764 29.36544161760119
28 9 1 8.891781500452275 19.400384583916008 11.433458466458884
29 9 0 16.406797028563183 20.61318897358188 34.43118208884765
30 10 0 26.653875650154912 22.970811593257665 8.356517072536194
31 10 1 34.98402684335582 14.963904611547093 9.994950474075821
32 10 0 37.53214494053894 38.67376623095555 7.006756423674905
33 11 0 20.176869052903083 41.471419381088516 13.109011742284263
34 11 1 35.2713658963884 47.02025834913304 13.008331714290188
35 11 0 32.67999031645679 39.44788713335892 19.873796602434773
36 12 0 28.805148779343657 42.1178448388799 15.699028660625014
37 12 1 42.47336620209361 38.205516506929456 10.060316546759587
38 12 0 41.81430298467229 29.89786611070011 25.204141932829277
39 13 0 32.90475211319503 33.77180990041337 41.54304284812811
40 13 1 35.89253879937522 25.568503787695867 46.79928272646431
41 13 0 34.28198983080046 23.4712808282281 39.4824332337524
42 14 0 8.174970481380242 23.429848026131275 26.850003313362553
43 14 1 13.804729545865733 29.857417905639306 22.05042264567701
44 14 0 10.742590194057993 23.257094929250886 24.86460496483105
45 15 0 30.997289860558602 24.968631787567283 39.04314943643597
46 15 1 32.050239635842324 21.807552480031706 44.42905186296456
47 15 0 25.803807905680593 21.753489721474136 44.586474331658685
48 16 0 42.95838490897746 35.57271100672687 29.223867125227624
49 16 1 44.482424073735054 35.954702126825666 47.01819289859989
50 16 0 28.691003908723005 39.1458406302378 30.698510531833172
51 17 0 38.46394209470421 16.3074276385713 31.900633574444274
52 17 1 45.951276147866444 23.33025575395775 24.43488554624734
53 17 0 26.624846247270884 28.94177039409652 23.17509527016078
54 18 0 39.72462589519908 19.812182475281322 31.870681726786373
55 18 1 42.36729513079312 2.2863281737534003 19.290270630259343
56 18 0 39.666185976962126 4.931158239139163 22.24013045597901
57 19 0 23.097951940813328 10.943493431899679 9.712761301891899
58 19 1 38.66710877872648 11.955310379706765 16.197433832323036
59 19 0 42.3076361876121 22.132581223725992 9.928069841853977
60 20 0 10.334366414206599 39.14206911485931 29.896625787820035
61 20 1 12.267727003631487 45.63727179762284 30.83058361540597
62 20 0 18.712961887001676 38.602165974172955 33.35366526244273
63 21 0 12.04119460127019 34.63510185269806 24.415470763933588
64 21 1 10.021018700502896 45.10491131491386 35.262621129922486
65 21 0 16.222581799726193 30.774792372698816 25.749377140516522
66 22 0 19.909452958498914 19.989213015201756 12.283225206697068
67 22 1 32.62713845794722 18.4579638735828 10.041177535465474
68 22 0 19.330209493793628 11.936867663481225 20.30038499780567
69 23 0 36.89975106681627 17.985526209497255 38.51605772819859
70 23 1 47.40359966722887 11.049451883698275 33.70348785606692
71 23 0 32.766205194020856 6.600310287561332 35.44711461510356
72 24 0 29.590495092166233 25.961513122350727 36.75123636602757
73 24 1 39.76342645455094 31.32456308002987 42.003129141789074
74 24 0 28.710937935128978 35.10344280785297 28.01480757081652
75 25 0 47.276344441437 35.102677751371836 11.406576321534542
76 25 1 46.13209184271617 36.13357401793598 12.267062636875004
77 25 0 30.81282448988612 31.72840107353318 7.532295571453847
78 26 0 17.441543357240313 17.17859596269245 24.263266864401647
79 26 1 23.45205832641133 13.75727350505901 28.75448297760249
80 26 0 32.28818311723179 10.224432016800737 27.53760763344011
81 27 0 18.41664654472417 21.340633417988446 13.403410030382883
82 27 1 27.3433577367792 10.309573439045463 9.004806985263517
83 27 0 8.260510943393632 3.642953535529587 27.66851627420355
84 28 0 20.10136771643524 31.889936474120063 36.22648630834362
85 28 1 6.794211238174554 27.50059743133857 29.17966130709674
86 28 0 24.292457979003107 21.89433591575212 21.707161154227887
87 29 0 20.692681669517118 21.622717358677626 28.631864521909865
88 29 1 32.33680045196525 36.70719050495642 15.37295368319366
89 29 0 31.24207119732584 22.462984641435437 19.034001170676564
90 30 0 48.424750565245496 26.43065987733267 33.525766592310305
91 30 1 48.07168046085025 13.615063133478493 45.906855779778404
92 30 0 47.628807877431335 24.87496777705395 39.85072955062025
93 31 0 21.751530439859103 5.369259761917255 11.796512534035712
94 31 1 29.965225516223416 2.786096535489925 17.624103203726076
95 31 0 26.006262059660123 25.355299002107426 23.190851751481414
96 32 0 15.405190046865084 36.53187078439251 13.575543442142887
97 32 1 8.063458820679474 39.80567944585677 9.631956736388384
98 32 0 15.534848348842207 27.461565375739298 7.513597665851533
99 33 0 43.88006440203211 42.910856784678245 31.087600534010505
100 33 1 44.05135993586883 38.05516861214141 18.491687749107154
101 33 0 30.30881128436052 22.28521855334896 35.756732982896324
102 34 0 3.3335044641625826 22.00081943427107 20.668893823331693
103 34 1 0.8894857332647242 36.17859174143557 9.202968555957481
104 34 0 2.177761005949779 22.758437651429873 19.52342775040868
105 35 0 28.004237859689436 27.395392996129818 22.951057324569714
106 35 1 39.523930522460034 31.394330992467026 20.08972932764442
107 35 0 25.671347214588057 19.470537594623316 17.317269705228604
108 36 0 26.598823445133263 30.870679062391243 36.44154870674457
109 36 1 38.2092458937663 47.804268741688254 47.7566150362859
110 36 0 24.94705735370581 38.13608652647683 22.869540287707775
111 37 0 22.96235991295567 27.896825407689192 33.48612262917807
112 37 1 13.862041459207083 19.369316664502964 29.129016427407475
113 37 0 13.568643906656986 18.85796428628272 20.432643160217875
114 38 0 12.81204524440669 15.527418309373614 26.686741576078685
115 38 1 5.545653287639614 26.06420801566817 16.851593151856633
116 38 0 14.823214462176365 36.368784329937796 23.962153364322518
117 39 0 15.149128278298564 28.17570238581056 19.581889297780236
118 39 1 25.293174388876764 33.16570150231681 15.40666701036418
119 39 0 17.334422136286918 27.415558598215654 29.31124951281379
120 40 0 16.59115549750153 44.34977882787948 25.20543385967575
121 40 1 22.86014355402224 43.3282842535133 23.813038264676244
122 40 0 28.740384289329743 33.181473972066456 33.061669548299086
123 41 0 35.75458749620395 33.623289698710686 14.71349676700054
124 41 1 36.73607319943297 32.16272565351337 13.340881745953958
125 41 0 24.419710333209466 35.45401704007673 28.18595703732206
126 42 0 23.041605701286116 39.529598568758736 35.45762244658133
127 42 1 23.36262536550714 47.47888948630676 29.713705332659888
128 42 0 31.217696002454023 46.6691153210166 34.5265161533763
129 43 0 2.3645344224223774 23.737285846756137 15.372904488064476
130 43 1 4.597009901152794 20.848929465570677 14.33170466059447
131 43 0 20.769806140408498 12.582758274030406 28.67191737458349
132 44 0 13.030935999501514 19.38764512586709 25.927004670202592
133 44 1 9.405805458724844 20.8902504095656 44.82766231523371
134 44 0 7.406355088842667 32.46781993696939 44.55475553921776
135 45 0 26.911630048292928 8.749900712828094 5.908680451254602
136 45 1 30.245509768567846 3.025802460533526 1.3053585019381877
137 45 0 28.065958316231345 17.327501399028577 2.188543652825722
138 46 0 5.965378787025683 9.449990325822641 19.635557986693428
139 46 1 2.57875621724489 7.484841711201678 29.761914624073864
140 46 0 22.17376703814274 25.35609477082252 25.962859062211958
141 47 0 14.685201486789802 31.449185493750715 40.897172750923104
142 47 1 46.63090131432392 4.795595605249104 38.59755927958599
143 47 0 33.068237252336786 7.628877164826479 36.264264259500024
144 48 0 8.703861336615098 24.73379058898606 14.00420958785149
145 48 1 3.1947624124210248 17.21022710774556 2.9951451470496036
146 48 0 18.668594541924268 19.132106094113407 10.549527156992818
147 49 0 26.078752024079712 31.180229615771566 25.257424231916755
148 49 1 14.013589450664547 19.483711368447267 39.80586819562545
149 49 0 28.92227408394423 31.71139623434397 42.360595125392805
150 50 0 10.424260023379354 48.166004215978774 12.354017672227329
151 50 1 6.926409376748194 46.4452847568245 12.632391716010522
152 50 0 26.418699164567037 35.566492913279525 24.89112918993168
153 51 0 30.00681200260197 26.429389573131882 15.135504462553614
154 51 1 19.052437250306767 36.02981315944396 12.256646440095096
155 51 0 14.194038141808676 30.122020816243715 13.550530403281076
156 52 0 44.76398789682831 22.704637710785185 34.92990511176004
157 52 1 46.95354241958822 31.222909459133433 42.496654646398625
158 52 0 47.01545468804511 34.352574941784056 39.05328545808228
159 53 0 23.768151296916475 30.234784927732058 14.571925778205777
160 53 1 5.621986696513039 15.5516735403804 8.861937581438365
161 53 0 11.98120910512557 11.37242055712711 18.098616042623046
162 54 0 18.50460650333191 35.14214381689783 38.08621685269856
163 54 1 14.972401169055763 31.99210655562812 29.954453047710185
164 54 0 29.78285115268706 24.375134242997532 28.789982607905532
165 55 0 13.10850178220173 23.903235298694476 18.218854043726573
166 55 1 12.622952484344166 25.292135865224477 16.378600053906396
167 55 0 15.300781287562659 25.715530604125036 25.716165805694164
168 56 0 10.374933040526866 27.527117534660693 31.345073895168763
169 56 1 5.635061386814358 13.409529011548818 22.585456541696693
170 56 0 5.349120998975116 15.002363848062126 28.99807572575031
171 57 0 21.529710882134584 23.628550882885197 34.3648381560272
172 57 1 12.165660887296383 17.888846835672425 33.208851379253154
173 57 0 25.73851895247782 21.807419761151003 24.955618463280146
174 58 0 10.779320916372328 30.48524181737044 25.050369822978126
175 58 1 17.579383820214932 26.6205381921908 43.05481615667743
176 58 0 12.065314188571046 23.837234698058154 25.384982709015333
177 59 0 13.803427560818479 17.659023952232303 22.284739470528603
178 59 1 11.523786490432656 7.561863647173732 28.98545267097847
179 59 0 21.50813167098443 18.62291140655983 37.055961497017506
180 60 0 16.32001969569099 40.951966712471034 14.26132451162978
181 60 1 28.62931202470944 47.36095275006081 2.640764329404486
182 60 0 31.561323481650312 44.53293072652216 12.49276005125415
183 61 0 21.278814970619642 33.246585032004965 20.84106249758304
184 61 1 21.441018929468736 26.114751057959793 33.343644806384525
185 61 0 13.04446009491694 20.75047876880342 28.948124492613708
186 62 0 18.107643458697087 46.76856776364668 37.60030071833478
187 62 1 8.14952501580993 48.495918881145634 42.586054679583356
188 62 0 16.233278251434985 42.85598153464001 35.321483037575035
189 63 0 45.7439051116229 20.11647687640633 26.56265967084838
190 63 1 45.09985476523124 4.68816278425633 10.290190365086161
191 63 0 34.108581442133605 22.80052487813732 12.02790977804835
192 64 0 39.55487422965798 21.951911260896185 12.293797945013322
193 64 1 43.66311705443603 9.039305873958854 32.322469821359945
194 64 0 34.22752188177029 6.500834583365744 33.673854087376576
195 65 0 7.731233014769993 25.830107430015815 21.658031132133626
196 65 1 4.775884841253473 43.52485349924971 35.4908345000368
197 65 0 21.990963515701374 39.57064771654876 31.836863253590167
198 66 0 19.62069383614134 32.81804481593196 34.9181178989551
199 66 1 22.767908403483872 19.87316495093435 47.446967718218936
200 66 0 16.573067970038085 18.1117233110924 41.67527953245925
201 67 0 9.135990416010245 20.580845523227673 24.775423345053877
202 67 1 13.968937554094946 12.886122062303889 25.38501984955514
203 67 0 16.072094515820417 17.30959652249766 21.499614809937526
204 68 0 31.273261596279827 19.52724434053019 20.15639936167527
205 68 1 18.315987024911568 29.4560502401771 31.503053247058244
206 68 0 18.776579959182765 38.639909594725765 25.580159838713506
207 69 0 42.679971135884195 38.2614358844161 39.0092522031553
208 69 1 47.92757945819245 43.14831197729613 37.268762646693695
209 69 0 42.378159686759076 31.88771590495605 24.378634465287014
210 70 0 16.877701407609504 29.176524226146178 40.85162150123046
211 70 1 24.763148966060406 36.86316055323636 46.80247203191718
212 70 0 16.75273681658615 23.413853601794862 39.44031840370852
213 71 0 43.4164549046913 30.319671306128193 31.584584027643974
214 71 1 47.61947348961292 21.26552439402365 20.105269338711153
215 71 0 30.38019815772284 26.68430069240666 25.393147347108048
216 72 0 35.70274313447652 8.64102335456498 16.217487682254816
217 72 1 29.972717500715518 11.537764001959705 9.487608268681452
218 72 0 35.65209674309691 7.76284856585347 15.609972268415838
219 73 0 14.190757825324807 33.614416506034324 25.378281453619724
220 73 1 20.413601476004583 41.4305592266791 7.788625461796858
221 73 0 17.512776391030712 32.23969970888104 12.845996957294844
222 74 0 27.401375840624805 26.55008626076567 18.810927766528785
223 74 1 22.7393619486542 33.360730480542685 6.219527932948761
224 74 0 26.119714646655318 20.614958535989974 21.070216961090416
225 75 0 17.981308644018473 27.329165315964435 23.452656244687116
226 75 1 6.778969173973387 20.16571976484564 21.038620903654063
227 75 0 10.659686086649568 11.861744280983398 27.937173509524428
228 76 0 20.064604924879326 39.45229493568672 18.928423583366033
229 76 1 31.24924058241903 45.795054531008724 6.901397585245954
230 76 0 36.6247059717146 26.91630751432888 15.195487032380795
231 77 0 14.798161643684503 12.710118550861226 22.234495957650704
232 77 1 10.977200994594037 2.388223501947167 25.158109219211568
233 77 0 24.371482560239365 9.245774770066939 19.15388221682726
234 78 0 4.873139134826351 8.66712782099488 7.392436755984481
235 78 1 6.089742995222732 12.30105494260229 4.462412062132741
236 78 0 4.614983921093664 25.998818230438815 5.853260823686128
237 79 0 17.094672433234013 23.068909966533905 22.38555220252927
238 79 1 8.968718264656482 11.187571690343104 22.265419620904385
239 79 0 16.49745270312171 13.750871997279466 29.648833444754572
240 80 0 41.41789435973918 31.96572556719283 24.81298295647367
241 80 1 44.199152552738674 21.52058110413752 42.28794627434187
242 80 0 40.036842900204775 33.47797841548627 40.7014421864632
243 81 0 18.838755533957908 18.50476764229736 22.706546627527786
244 81 1 25.9200493788499 8.182635965551963 36.798352724524534
245 81 0 26.513736429798513 12.740191644641138 30.838191460480974
246 82 0 29.123817703214996 3.7488598971522396 6.388779293155348
247 82 1 46.50153946114292 0.5853694047753849 9.88693586957566
248 82 0 39.9477152800147 2.0359568407035256 24.718737966037718
249 83 0 24.575543140765664 36.680404596339784 36.766582487647256
250 83 1 15.75960014560886 27.358061224538865 44.8512308073842
251 83 0 8.634549045981379 9.063113013597762 17.13197701997067
252 84 0 17.19484235340225 23.3384623644369 18.43651549644789
253 84 1 16.211929246938702 40.62518468616551 23.27599094407461
254 84 0 18.805386942086702 30.56349294086573 32.36744954050785
255 85 0 47.394626220683016 43.93734758698692 26.49730142127495
256 85 1 47.054535296664376 38.94718544661906 32.43717109513517
257 85 0 32.147092336084825 26.828779592845635 22.198514214215262
258 86 0 34.17471909150555 27.764716614791556 33.37479350148698
259 86 1 24.82998133995167 37.5163283714008 41.55374197787907
260 86 0 16.802862666404597 30.558980897776138 41.94965732193432
261 87 0 26.811165926205707 4.674598967902332 15.010770370213725
262 87 1 15.738106947511373 4.631108561838818 20.490903081031398
263 87 0 11.02191589462422 15.0378796845287 17.00973136036004
264 88 0 38.650830293292884 13.470922119439818 28.50360974628242
265 88 1 44.91949626379004 19.28182601647351 13.005109289665619
266 88 0 30.988095525990232 21.497927518857328 7.974405316810247
267 89 0 43.83850778316476 24.230050126022753 34.17242487881031
268 89 1 39.68589152661456 35.10200536481036 46.430350297165845
269 89 0 29.94254263244985 39.56118681498485 43.15526994664515
270 90 0 23.685786609454546 20.1546634125005 9.094578005616105
271 90 1 41.24017478427854 7.124797842752626 11.471353550657435
272 90 0 27.736753017564812 12.505675510233438 22.597008351961946
273 91 0 20.902744925767156 13.680546253332386 4.808545116669342
274 91 1 16.14120761317447 5.605837401085926 8.847871170924241
275 91 0 24.902281056124544 20.024907862173116 40.22444552736683
276 92 0 37.504591655760464 8.124546615267484 23.212027375294454
277 92 1 8.37898623760226 34.75914582523638 32.13690799756489
278 92 0 21.950257372611173 30.411676357949705 38.1009498345903
279 93 0 12.796619819679117 11.543296275279486 19.587667010201663
280 93 1 20.960701011195596 9.35345953160064 7.681717334466267
281 93 0 29.653439339996634 15.464657053267336 23.141155185179134
282 94 0 30.423676443346277 33.45003525668351 28.709040425348604
283 94 1 25.29625611925087 43.32920416122648 36.559950162098446
284 94 0 14.268533181012247 39.724845092363324 40.804792299589536
285 95 0 20.385929337356835 13.786326961683672 36.23399205349809
286 95 1 9.289595999965908 17.51751738489172 45.08985417657263
287 95 0 24.926144889119442 16.131841358817233 33.17769613071946
288 96 0 21.116405874105897 45.33165330683358 16.709335349575145
289 96 1 14.495416438515743 42.66581481022098 24.094780932613958
290 96 0 27.47039390651761 28.288067833785792 25.31676711874138
291 97 0 22.85312329292714 11.870119166199663 21.06829859788389
292 97 1 31.90141686052722 1.423128416638569 4.373310856339194
293 97 0 31.72964808605309 20.832548486615373 17.70236285627323
294 98 0 22.724702920095602 38.79496903648964 38.06924887603052
295 98 1 17.265029561920773 38.710224644725486 36.408629994984686
296 98 0 12.62086827276255 40.764476305118755 29.95875457598571
297 99 0 27.9781018705952 23.76860885549404 35.83668808758826
298 99 1 31.12641776050292 24.973135099065598 41.532908515534395
299 99 0 34.96247295930187 26.821457227877765 25.096879974324054
300 100 0 19.80134337571075 31.67423203843667 29.67095678603257
301 100 1 4.341358719956009 41.998374515539275 43.48228933958108
302 100 0 4.791420555703591 31.306505643864398 28.79111413001568
303 101 0 26.405824660018517 24.317771412165655 5.95224037304278
304 101 1 40.95813151990161 9.434434109737596 2.87542732297285
305 101 0 46.220057775210854 15.948693111294853 23.23284689944538
306 102 0 31.47703028838946 20.473511242972755 39.28051443788222
307 102 1 26.319538081320758 24.528964181739255 44.37221109385153
308 102 0 26.87033866631592 32.10859810353125 40.83305341715322
309 103 0 25.333756601310178 18.735989836600314 14.350440499966481
310 103 1 42.34047539176891 4.096602508893676 17.247155755358687
311 103 0 26.533199928389017 11.540840719072317 24.67258531707556
312 104 0 28.42103755271081 7.5935249323484 13.831522842228022
313 104 1 38.59850935120283 7.981234211381497 11.832438916185714
314 104 0 23.94737175987936 19.53126508208512 15.496656271005374
315 105 0 26.90623038482197 38.1491599125639 13.656250247080523
316 105 1 36.111972557301264 39.50883581212516 11.19787482645935
317 105 0 41.74089648908077 25.924523662359988 12.59342532079867
318 106 0 18.179305929886212 31.04301959738616 34.74089209551872
319 106 1 25.028555349485842 41.442523500296566 42.47978742153531
320 106 0 19.102637934698198 37.18107945754608 26.71230611028919
321 107 0 24.514456697499025 27.407200062079905 10.23586193634817
322 107 1 26.092172725086208 36.396215520232914 6.012991337222024
323 107 0 34.059005738187636 36.66708639766039 7.110918289654727
324 108 0 26.55626347894007 26.13253982299373 30.79317822382788
325 108 1 11.317838466406839 26.752006974791307 16.759930045116207
326 108 0 12.742486063016326 28.000142246347036 29.30266314807976
327 109 0 43.213321726115254 29.91318961448215 36.19759319188017
328 109 1 45.3170647405997 24.78880421237585 42.57197306226606
329 109 0 35.85825143538246 22.801469418712497 33.51500362683738
330 110 0 13.398019576604517 27.252883076782723 6.920661594656997
331 110 1 23.173926823737876 35.90424765295588 3.3441297629294082
332 110 0 24.573007482749023 41.112169655147305 7.080180120176796
