ITEM: TIMESTEP
34
ITEM: NUMBER OF ATOMS
33
ITEM: BOX BOUNDS pp pp pp
0 50.0
0 50.0
0 50.0
ITEM: ATOMS id mol type x y z
0 0 0 27.228970064757082 27.074545825133352 31.745332011229767
1 0 1 27.040425933115763 22.655491457715225 32.83844703150231
2 0 0 25.350042966119176 29.71019760605375 37.877470147723976
3 1 0 24.661726026520412 43.06981808213971 12.443766392229339
4 1 1 27.07956025205763 44.20578009042558 5.968746661224849
5 1 0 20.03010461668715 30.712588356423208 16.960529307066377
6 2 0 38.973326032748865 30.56458084298444 42.01258763631598
7 2 1 38.56027565642862 24.224980431461983 38.142508066377225
8 2 0 28.21110936280746 26.515918660824294 28.23006630819424
9 3 0 25.379505545532883 33.618640629505215 22.229711070495487
10 3 1 15.175199850387246 36.71369753337863 23.045944445235676
11 3 0 19.116454404428882 25.381226518363874 25.57021241213532
12 4 0 32.87233890236925 22.264337646478346 31.00951681739849
13 4 1 33.98444235413593 17.904274175904963 23.290984010360024
14 4 0 34.31945932631942 12.731457663947701 26.48681026785537
15 5 0 22.156334796652658 16.039044078299902 20.294648432017617
16 5 1 16.71357350059827 19.123140917802758 26.714555434495626
17 5 0 18.23190892577828 28.89758276958632 19.979268942964733
18 6 0 11.789969232320917 17.554740648444547 19.885687869672893
19 6 1 12.392959978444878 22.022102141410855 13.826924504482788
20 6 0 10.948790428218347 16.724581470796835 19.89575456443042
21 7 0 28.532537967954717 7.391617121671663 33.41452322647481
22 7 1 38.24698969074942 6.810076964322353 40.228787111638646
23 7 0 28.026267401085825 19.981756737776923 35.14838459256303
24 8 0 18.225401107685904 19.502364955731572 16.775101442200793
25 8 1 4.327593810636652 14.47113759672815 7.627269802667479
26 8 0 7.528924403454924 11.383154256603989 10.207780279822938
27 9 0 25.07423685035889 9.762633341484307 29.67715022694087
28 9 1 27.105022852169316 13.501840576205195 27.287650705788483
29 9 0 19.936053794849748 18.522853702336263 33.4067677165153
30 10 0 28.65963997930162 20.91954588143726 8.828868006446237
31 10 1 34.778864574290566 14.679348907413747 10.336425000925258
32 10 0 33.19379636069104 10.112404361611361 20.378686943021084
