ITEM: TIMESTEP
37
ITEM: NUMBER OF ATOMS
66
ITEM: BOX BOUNDS pp pp pp
0 50.0
0 50.0
0 50.0
ITEM: ATOMS id mol type x y z
0 0 0 27.214321205650027 26.732219641986692 31.830142072574514
1 0 1 27.032054568582343 22.71550512662449 32.86080410577188
2 0 0 25.49847452757029 29.091131931430265 37.434859645780364
3 1 0 24.865578187075847 43.16365629058401 11.896473399634498
4 1 1 27.025661540633692 44.12100358409803 6.067155246035448
5 1 0 20.688845266656617 31.974202656156887 15.934006110118874
6 2 0 38.93570157467212 30.020853819964785 41.67773212548913
7 2 1 38.50361785969317 24.27218732755664 38.10601655588121
8 2 0 29.164195540798588 26.30664655909429 29.143250109919045
9 3 0 26.285232998033862 25.72060480198383 29.338702776561092
10 3 1 15.457625911835658 35.82544475670025 23.737310669677058
11 3 0 18.848329341056548 26.05780046634829 25.626479002263174
12 4 0 32.97021710208708 21.879701402518574 30.33110842786532
13 4 1 33.98005584369102 17.901402634639783 23.349836013164687
14 4 0 34.29143631794784 13.161711887571977 26.222958416330428
15 5 0 21.677685047187534 16.31262765568911 20.857991385790204
16 5 1 16.751971641046683 19.161408655644596 26.64119042744027
17 5 0 18.09551285038894 28.010691484698796 20.58833873331014
18 6 0 11.842075973683606 17.938118906994568 19.36640915133321
19 6 1 12.38181895741634 21.96942616258577 13.892322840667577
20 6 0 11.073712093478491 17.184012642492394 19.368947178810526
21 7 0 29.409817469845812 7.342158783946812 34.03041943497682
22 7 1 38.13279333917217 6.889904402929398 40.16081847476602
23 7 0 28.97570904718809 18.755268688823534 35.61983659726567
24 8 0 16.931919827697964 19.033231340777792 15.923830897474918
25 8 1 4.424312766631343 14.484990933241042 7.693342880610266
26 8 0 7.275316816461774 11.630733565988844 10.003082754613056
27 9 0 25.233811718690433 10.059193328933649 29.489071632927853
28 9 1 27.054925665799942 13.511399270266107 27.333655077705217
29 9 0 20.578756828309732 18.071686411076858 32.858294894036334
30 10 0 29.19719300694167 20.369873161159394 8.963788873999862
31 10 1 34.736430085385884 14.687885639457726 10.384493917083493
32 10 0 33.33510200823726 10.5253151920551 19.473626357106482
33 11 0 24.922458006910425 43.19411334181566 13.099936277776601
34 11 1 34.928569572275606 46.76980221737515 13.139355783964005
35 11 0 33.41903642628186 41.73335783698014 17.78557688884536
36 12 0 22.81153435302258 47.33467464636576 32.02221438168151
37 12 1 25.71983394059441 48.43020704808947 38.69653687809672
38 12 0 21.43078927405251 35.87606916427921 28.074453164152743
39 13 0 33.80628045814944 31.27708843921343 43.11564351832487
40 13 1 35.80720717538393 25.684483871835948 46.56771404864039
41 13 0 34.74573559750573 24.11072584055988 41.61378176013129
42 14 0 9.86337935820165 25.352340291704014 25.40966134261243
43 14 1 13.642516670469925 29.618870147991217 22.189631106851017
44 14 0 11.624851620298028 25.171296660915985 24.051749934318924
45 15 0 31.2805206686553 24.070430679709062 40.57375345851439
46 15 1 31.921981325556064 21.86228421418753 44.336977202706166
47 15 0 27.571488918526054 21.776887695262253 44.52815597313765
48 16 0 43.90207671070751 40.49328502231496 35.682224744733595
49 16 1 44.17910357426816 36.43745482558922 46.42785903195137
50 16 0 33.76801396807362 38.292831557691116 35.90672374062496
51 17 0 27.03934859509093 29.73048909773887 41.64594496875497
52 17 1 23.69124088080666 40.61179417124897 43.45549432008651
53 17 0 18.837201567131874 38.258036936544414 35.66241300526217
54 18 0 27.34696088588325 17.534668475129283 14.90406175178322
55 18 1 41.363062677632534 2.9095989558237383 18.72196346377359
56 18 0 40.12211809102062 4.343171510657013 21.257881908810187
57 19 0 28.030818615590253 11.29803072644345 11.740820332502844
58 19 1 38.432517175807604 12.130119187464706 15.95078844592732
59 19 0 41.128510974478 18.98064679680634 11.845533624052619
60 20 0 10.90788396173049 40.98990788746512 30.17208849440039
61 20 1 12.35397680162093 45.39009024483277 30.86122344627331
62 20 0 16.759269274388306 40.710197699484695 32.588396981354
63 21 0 11.647654705842232 37.72387609495742 28.004536101494224
64 21 1 10.199016388175236 44.60963607740565 34.88344949154684
65 21 0 14.268897845184544 35.28059597768456 28.73710979752802
