ITEM: TIMESTEP
38
ITEM: NUMBER OF ATOMS
333
ITEM: BOX BOUNDS pp pp pp
0 50.0
0 50.0
0 50.0
ITEM: ATOMS id mol type x y z
0 0 0 27.2175181210376 26.855024247457646 31.80200334812708
1 0 1 27.031504636126183 22.694225547559437 32.85688516506489
2 0 0 25.442932587913088 29.31382509811742 37.596625711912736
3 1 0 24.793208542921374 43.13152271449877 12.092622991530824
4 1 1 27.044900448512877 44.15146552412054 6.031822310271365
5 1 0 20.451953427344826 31.52054821742897 16.30289569172851
6 2 0 42.17886514560806 28.081146564122772 37.27318104856458
7 2 1 38.57019780718142 24.219519937252226 38.05097395756553
8 2 0 28.82639068785957 26.37757255910307 28.807104839729888
9 3 0 16.245224841102978 24.47489003073 19.96861399794768
10 3 1 14.105806308995236 35.51632077688675 22.96061854866397
11 3 0 18.119253666812853 26.711058660497283 27.860625905014167
12 4 0 32.93502188053162 22.01806905080728 30.57498053971758
13 4 1 33.98176357917656 17.901779872386722 23.32886521825268
14 4 0 34.30497182466919 12.994947549608774 26.320586860170994
15 5 0 21.866484367918705 16.208601063203176 20.661434082281705
16 5 1 3.4650395278313226 7.134233342334483 12.885236923393677
17 5 0 18.161681075037947 28.323972852732346 20.375482234703995
18 6 0 33.04872454082934 29.194284779205244 16.341235256549982
19 6 1 46.8414495482855 40.14055310615981 8.852767345553307
20 6 0 32.332330309735276 28.37292781903212 16.342143384088065
21 7 0 29.095524417954167 7.35954415049936 33.808604545523856
22 7 1 38.17375489254446 6.861195639862957 40.18526407720387
23 7 0 28.63385857892314 19.195898761255613 35.45123610018228
24 8 0 4.102333881258526 24.044183219292346 27.786493905978944
25 8 1 3.5205310726192773 14.822392244546428 8.415536937514295
26 8 0 7.0930099114752005 11.661181450534032 10.286513587266036
27 9 0 19.05484020547268 12.202806024944607 24.098574041085183
28 9 1 9.289541146707007 19.22559285182976 12.18876059720155
29 9 0 12.900922303089631 18.448754804312454 28.179591601947912
30 10 0 29.023883833745273 20.76764744284898 8.812677876614476
31 10 1 34.884754899272345 15.540445876859453 9.911241593228127
32 10 0 36.750808897251204 31.65197019663921 7.889893382044139
33 11 0 24.561944028702698 43.06491692928722 13.09886566201257
34 11 1 34.954380278056654 46.788600079562634 13.129553844092742
35 11 0 33.366714658858655 41.56095518816102 17.944394936732575
36 12 0 32.76769566576964 40.95883952956465 14.107695488048849
37 12 1 42.216146149823665 38.12546955581979 10.435406414146659
38 12 0 41.967027443539145 32.33771020290771 20.793940359882885
39 13 0 33.73806489721471 31.467415575468404 42.99773757424782
40 13 1 35.81363581188573 25.675725154366194 46.5852120363851
41 13 0 34.711200169010915 24.060174232608308 41.45293200111503
42 14 0 9.736408889471237 25.207124793065457 25.51917388823483
43 14 1 13.656072144732118 29.63571887693556 22.18056803144065
44 14 0 11.559666701963272 25.026981155278914 24.113119317641875
45 15 0 29.09521420635152 42.71815488605133 16.28299691935698
46 15 1 31.923191392024535 21.92895046498921 44.246784257515145
47 15 0 27.437020944512227 21.775867378670323 44.53149105979359
48 16 0 43.3574506936318 35.69401200155326 34.38347289362161
49 16 1 44.165159517949036 36.00633006149297 46.39663352586388
50 16 0 33.36840523356032 38.198567877782445 35.48390300795536
51 17 0 40.549222048106444 18.33180087537405 29.76215670664868
52 17 1 45.466253833574385 23.308393078488095 24.543983876200546
53 17 0 32.29990711597787 27.267238269033207 23.567966105362853
54 18 0 40.49997654500817 14.63414573624537 28.156029064696806
55 18 1 42.278034468596736 2.6484538988430977 19.565095117276822
56 18 0 40.31520063686765 4.322408030281927 21.548516386121616
57 19 0 27.654301346779384 11.268182345969404 11.587872151054587
58 19 1 38.450166322181815 12.11699412629902 15.969409134356106
59 19 0 41.2224040806377 19.220953512824348 11.70125164527877
60 20 0 10.863571658277623 40.85023176007918 30.150880579601942
61 20 1 12.392657022113847 45.372343560909684 30.87959788034132
62 20 0 34.355138352456336 29.699700857609113 39.9105905102988
63 21 0 11.473488966391717 37.6268731439061 27.52995376025807
64 21 1 10.16972711986341 44.657310994108634 34.89565234637234
65 21 0 14.410947587927886 34.944654287466484 28.506573585150168
66 22 0 23.51322926896021 19.532375972404566 11.670251221855834
67 22 1 32.160723647001966 18.366881712308654 10.266907788139248
68 22 0 23.18878024655813 13.851367234827123 17.301709079530994
69 23 0 39.87577258755604 15.980459066763332 37.13850294461509
70 23 1 46.95408982933413 11.092881845964879 33.820352376899095
71 23 0 36.98263115623137 7.910660219023914 34.95494509372781
72 24 0 32.416889860077696 27.53679231905546 38.28326682612384
73 24 1 39.14853285312704 31.44787322760366 42.003474481267375
74 24 0 32.28558822262581 33.11043486301027 32.40001308576627
75 25 0 47.08547308686858 35.24682531905173 11.525283748193539
76 25 1 45.86467377193455 36.04434494518183 12.173422064671868
77 25 0 35.28260763117177 33.01171052179567 8.911989774446818
78 26 0 19.111049115466233 16.232389877793462 25.489190458194212
79 26 1 23.502656315013038 13.754287652730973 28.657435518329407
80 26 0 29.80914128396873 11.218390500145981 27.864420413687657
81 27 0 20.94279172207861 18.129127187285626 12.186214689435564
82 27 1 26.831027992848615 10.383832997236796 9.428545772763238
83 27 0 13.934252595319043 5.667362802393885 22.10647310241891
84 28 0 16.334698487577537 31.590468839199282 34.06973988420838
85 28 1 7.35338574429406 27.49426195115599 29.16884572207362
86 28 0 19.178735621777403 23.5602416041693 23.928386166944254
87 29 0 24.14376564142977 26.05567398282436 24.70929997234544
88 29 1 32.103451265855135 36.17557246535436 15.681834211617845
89 29 0 31.52452539401506 26.535929939646376 18.01452670708032
90 30 0 48.32022520424456 22.711275271248567 37.13221603527527
91 30 1 48.07024927798468 14.046406371728938 45.57539478290603
92 30 0 47.756270622278585 21.69284761668421 41.547640875582125
93 31 0 24.046402365039164 4.708237125271192 13.448560271700645
94 31 1 29.749804737476204 3.2457878374560454 17.625209391888387
95 31 0 27.158121654145685 18.661252075634973 21.52111222253573
96 32 0 13.399947551808118 37.4025806944351 12.48247484022547
97 32 1 8.322528690147271 39.52881294713554 9.661346245363584
98 32 0 13.394978842666124 31.0207115316162 8.136430197527751
99 33 0 43.88879848410121 41.469294828186904 27.519464802442407
100 33 1 43.794402272896036 37.850089460367556 19.034534912979247
101 33 0 34.411404960508115 27.00806695468939 30.639350840583983
102 34 0 2.621253277677161 26.118427378977863 17.33762659731737
103 34 1 0.9570859877898695 35.67911413919455 9.597293866143568
104 34 0 1.8083589002749052 26.632460966593282 16.54549909225845
105 35 0 31.25245336165338 28.50322979209716 22.127119616650102
106 35 1 39.068996703097675 31.107206420055395 20.089907005288687
107 35 0 29.70200802142591 22.956722625985996 18.138586502458914
108 36 0 30.002845622579294 35.86502948682238 39.72231598334427
109 36 1 37.75047687163418 47.3144009540079 47.087892654957855
110 36 0 28.88334137026264 40.97962177757694 30.288331416513365
111 37 0 15.61766797355413 18.562561441961147 34.188009124496546
112 37 1 14.030699397379625 19.52610203267671 29.046840632422104
113 37 0 13.672958376139961 19.018632882541095 22.841928500228985
114 38 0 10.718966034807991 18.627504680957223 23.835048359279863
115 38 1 5.80942142327351 26.0755164794105 17.090065025609267
116 38 0 10.537302321557162 34.23566738858832 18.660234728709714
117 39 0 18.01237665958504 29.579100911272633 18.432747207309493
118 39 1 24.970788076081174 32.97394820023187 15.73145328909598
119 39 0 19.629365722424673 29.080190998458995 25.263803225965376
120 40 0 18.2631203354029 44.053219826280035 24.861837852120775
121 40 1 22.86314819804142 43.16294758616747 24.001725400425087
122 40 0 27.020412976430794 36.12345013009945 30.386270445137818
123 41 0 35.91305532803855 33.41036193105197 14.49548196045074
124 41 1 36.49883478476164 32.23608010799707 13.627128889234605
125 41 0 28.04296605873811 34.487168112010934 23.818957032455643
126 42 0 23.151410927152543 41.74620602268473 33.86683237796215
127 42 1 23.491916587495272 47.32759631150922 29.895598950506162
128 42 0 29.039225744641328 46.8732124175684 33.207006428656925
129 43 0 2.925780327653035 23.042049516006703 15.16457950721025
130 43 1 4.862176827667808 20.73865192065506 14.610502432424111
131 43 0 15.96574181054603 15.042418055014329 24.419497234868352
132 44 0 11.969992481178918 19.86157384455814 31.48809342973391
133 44 1 9.436769173170278 21.066502620851363 44.47880240150257
134 44 0 7.985231921379258 29.172018733595465 44.577981528109284
135 45 0 27.81217328794341 7.229520325837697 4.66002621548868
136 45 1 30.150400247732236 3.3781259762732057 1.3985780556327687
137 45 0 28.686975858529255 13.21087378801662 1.9452798925585795
138 46 0 5.067313496115645 8.947480526640733 22.477740404950772
139 46 1 3.000176364290122 7.850369263717694 29.514312810381202
140 46 0 28.66122673859354 12.240310968045378 47.592878162598936
141 47 0 24.304924065283526 23.397931102333878 40.195162079239076
142 47 1 45.791809075809745 5.344803185644445 38.599100037025224
143 47 0 36.87447109980425 6.893001162043156 36.94220610318719
144 48 0 7.1577751217267505 22.56735914243122 10.847678716280985
145 48 1 3.573032904370172 17.37938867231899 3.328421202956063
146 48 0 14.162289401702482 18.592099008228345 8.373473633352896
147 49 0 22.551304339831354 27.753873759755997 29.572590483342456
148 49 1 14.50585218172026 19.92044003309411 39.58585834504448
149 49 0 24.573541550113738 28.1500861112858 41.56557090627238
150 50 0 9.658944122762431 47.747271866378895 12.443429151754836
151 50 1 7.336606372592259 46.26867802267192 12.855060436839146
152 50 0 20.62086019828076 38.810951801049285 21.23902526029034
153 51 0 26.822255140320205 29.192977404382887 14.305502199955916
154 51 1 19.167180932490158 35.758377700839794 12.32985802691269
155 51 0 15.540469653152662 31.69861487917336 13.207286660643415
156 52 0 45.38579055611586 25.13050188186673 37.070138171036405
157 52 1 46.91594037094796 31.1205466920389 42.311071812049825
158 52 0 46.995337397248754 33.56453556209525 39.88235801530256
159 53 0 18.394144321489428 25.85925341755618 12.90202236364329
160 53 1 6.065728537768195 15.747435081546417 9.128778582149822
161 53 0 10.22430462287956 12.603656724414371 15.487368295564396
162 54 0 17.563933988871042 34.24584926464791 35.82344866071923
163 54 1 15.300598460581257 31.908705839818598 30.073222165245348
164 54 0 25.472063751953385 26.606009138089693 29.152360835221234
165 55 0 11.754513224447418 25.86750331187421 18.514310169349432
166 55 1 0.7870068205770298 41.11431830562364 23.160810410059767
167 55 0 13.285692560612542 27.257381609644995 23.743523121571503
168 56 0 8.988869435231797 23.405045167302333 28.801468493790974
169 56 1 5.716246510479831 13.69125225688272 22.848636186859373
170 56 0 5.435843161458165 14.617070528648094 27.33085859815174
171 57 0 18.92469147311085 22.019801490910524 34.016228949267976
172 57 1 12.57389813943975 18.05971614569778 33.08023129688908
173 57 0 21.81160146830371 20.682107589315947 27.362442463536215
174 58 0 12.763262580079125 29.340332262872295 30.295830320195364
175 58 1 17.35223214793705 26.641582363597482 42.40975367098993
176 58 0 13.662960069506411 24.66531968670448 30.517457044053934
177 59 0 13.181463416104604 14.810005733251892 24.21919636728846
178 59 1 11.744431788090797 7.939950245884333 29.01300873024802
179 59 0 18.599766674030707 15.422561983978301 34.68065368248529
180 60 0 19.935707809696925 42.822223670506325 10.883606445632166
181 60 1 28.457034051112803 47.19546876499742 3.0230618593728136
182 60 0 30.70211327728476 45.31070694248298 9.75339902184231
183 61 0 21.375590594948324 31.28061181448357 24.405597696054638
184 61 1 21.653365524984824 26.670989763053026 32.8992131965947
185 61 0 15.494924235740216 22.389767791376517 30.129145259840932
186 62 0 15.313817213618814 47.242580821440946 38.99103824521991
187 62 1 8.466466804075367 48.36616956718304 42.37060384868391
188 62 0 13.956045533605705 44.45798244617544 37.3779731168188
189 63 0 45.51991770475342 15.601329309299857 21.74798546027682
190 63 1 44.91078124757141 5.301912850033228 10.620120859799481
191 63 0 37.35790950366532 17.49583681380088 11.563655796115622
192 64 0 40.74894133937969 18.106125708673375 18.251526961074553
193 64 1 43.42437470004352 9.233013986913738 31.977278392149763
194 64 0 36.85304090083097 7.247141751331051 33.239042637230824
195 65 0 6.9080017058390055 31.060550177541412 25.746310349352505
196 65 1 5.2116877226286284 43.02424405998046 35.150089480684365
197 65 0 47.67105888663061 3.7831331048211543 25.60485850311216
198 66 0 35.35622555804652 32.447537251389655 28.54225049162893
199 66 1 22.777177813448244 20.116218523554963 46.98354153626529
200 66 0 18.279294815495597 18.633600486438034 43.21621034037253
201 67 0 10.47821400740472 18.461684323993683 24.935193369966385
202 67 1 13.92008097298299 13.089795657844284 25.311628748055945
203 67 0 15.511636796918275 16.16994725536408 22.51410992980895
204 68 0 27.457318614719394 22.478879357431367 23.48221112805023
205 68 1 18.560427686548472 29.435830323025655 31.192876653950727
206 68 0 18.683567503564046 36.01791846245729 27.22053728443738
207 69 0 44.07517896773763 39.5449392587703 38.50831014543635
208 69 1 47.7396416465134 42.86271594717022 37.06374274510021
209 69 0 43.989966325531114 35.173783102521696 28.15992918876297
210 70 0 19.10419106847491 31.33253508014237 42.52828948639523
211 70 1 24.479050594630646 36.48416553172622 46.56425821696696
212 70 0 19.0705242444874 27.321472782240566 41.57547579244955
213 71 0 44.58434032722 27.71153501294453 28.273250165140727
214 71 1 47.230852674629425 21.52632824607561 20.40717209725726
215 71 0 35.43032632723374 25.11950035332253 23.87387088817003
216 72 0 34.12898344915003 9.436244974960134 14.368957138513501
217 72 1 30.168205430149587 11.423310754717733 9.70798021899036
218 72 0 34.095464731868795 8.797760335468228 13.932152316898032
219 73 0 16.009011712523876 35.89926954593873 20.20938687956966
220 73 1 20.24939838494945 41.127879988988475 8.197769714875294
221 73 0 18.314600540229335 34.80888077516231 11.472235437382492
222 74 0 26.06210973815578 28.484912661072695 15.209662748435397
223 74 1 22.884418337048906 33.00648381144934 6.715620609633955
224 74 0 25.137840088108938 24.347564336018127 16.734335424864188
225 75 0 14.770960614606924 25.24605473597117 22.777824561571677
226 75 1 7.0464541555882825 20.147459325321737 21.202668796549233
227 75 0 9.590274086937521 14.237027498375348 25.987276691912665
228 76 0 23.352792772646712 41.25166411843514 15.434532158706782
229 76 1 31.145178770961966 45.335091076484495 7.270747767329021
230 76 0 35.016010761186664 32.482463774646945 12.784969606820273
231 77 0 13.753537104711683 9.80773177753486 23.045407793981454
232 77 1 11.285475915516784 2.6925735280207252 24.998712392943002
233 77 0 20.483670572762314 7.2785928846123555 20.893293748663595
234 78 0 5.1720255139076725 9.607218891511199 6.666959721186929
235 78 1 6.04470878662428 12.489515547330186 4.532321185098316
236 78 0 5.036788663244897 22.043121907443457 5.459982613944724
237 79 0 14.769761697301574 19.64603243606501 22.370614810923907
238 79 1 9.250526263939383 11.450697522657135 22.39266457543707
239 79 0 14.398493298540888 13.061689508548882 27.567705190741297
240 80 0 42.22632924990725 28.918967802191588 29.963683857991956
241 80 1 44.07475526819139 21.922890837327675 41.94084170350018
242 80 0 41.217643048781625 30.08807227563705 41.10643961295804
243 81 0 20.919841227861337 15.485346554836664 26.82934514410362
244 81 1 25.800975595868213 8.446229450037356 36.442840948771604
245 81 0 26.337841036180976 11.542111585237079 32.40359075392918
246 82 0 34.196224134165305 2.8262465426589087 7.457453133637395
247 82 1 46.06842171779126 0.6688412762726043 10.09075523639755
248 82 0 41.80756751772356 1.6269239709330237 20.384797657081005
249 83 0 21.99810779342524 33.9218883636152 39.026926934556194
250 83 1 15.78756537118594 27.182569457078678 44.18738929691285
251 83 0 10.733441876989922 14.511431369991262 25.495479282543492
252 84 0 16.914303079820165 28.373248002361198 19.88049497485284
253 84 1 16.275150780126854 40.13358732723398 23.35045256667981
254 84 0 18.060223783610244 33.40533680236045 29.73442033391474
255 85 0 47.261637513178506 42.55033882005344 28.08091630756629
256 85 1 46.78709520627808 38.80889255954299 32.149873649283585
257 85 0 36.559120647651376 30.42844679221706 25.211623211793018
258 86 0 31.435254567909144 30.58017345731604 35.753784762191735
259 86 1 24.85827602476305 37.21959035031568 41.413444428497954
260 86 0 19.089620944239737 32.49091136924456 41.81520869488786
261 87 0 23.63610528868205 4.691331303447049 16.56583865402377
262 87 1 15.85068699885157 4.815245252748872 20.332720214133076
263 87 0 12.395727212128646 12.074958894143373 17.985555233615607
264 88 0 40.44520845608756 15.178607700871604 23.95154970357692
265 88 1 44.556244242453 19.21628425804981 13.195689900928398
266 88 0 35.00577515450343 20.838938850966542 9.477152938980488
267 89 0 42.59807918866144 27.417391878342396 37.74232565416287
268 89 1 39.590245972347404 34.98364427995581 46.15146204102821
269 89 0 32.71306030905973 38.26766363328246 44.04764415815245
270 90 0 28.8400525509978 16.314880887050343 9.831237150683055
271 90 1 40.67198244664693 7.461524782264277 11.629828793017865
272 90 0 31.6424256435491 10.967302499787474 19.328686227824186
273 91 0 19.593249818587534 11.458631197997319 6.031828787303582
274 91 1 16.387107105453115 6.014673145128896 9.362840654945982
275 91 0 22.27732055487092 15.705422470588573 30.76165208251832
276 92 0 28.734510986777195 16.155056250762502 25.930033581826343
277 92 1 9.023822315248097 34.133587448523755 32.15373286935234
278 92 0 2.8110901464717335 28.348191941228155 47.364255040322355
279 93 0 15.181611153501352 10.928135182971038 16.191405025938472
280 93 1 20.972653280365726 9.503658144371617 8.175515310443455
281 93 0 27.07711741535876 13.67660780164924 18.636542567548908
282 94 0 28.499373951313714 37.18434924734562 30.735063968577062
283 94 1 25.185325595455758 43.10535973188317 36.491800747987845
284 94 0 17.43154767038435 40.727902426193296 39.569895021994384
285 95 0 17.225038976514856 14.859593945349063 38.75818833457943
286 95 1 9.772754550135987 17.42559985662938 44.71458565341606
287 95 0 20.356492110930134 16.529210053735774 36.657816381653745
288 96 0 19.2960212856307 44.543348665870205 18.78413748070337
289 96 1 14.84735664921465 42.4491687112698 23.988537214873247
290 96 0 23.67195236225418 32.52560826215586 24.936171007120688
291 97 0 25.527883962404513 8.8398820564842 16.17238926556897
292 97 1 31.732778802571474 1.9705719991600779 4.92342334719292
293 97 0 31.753281662034823 15.10347320620195 13.796812550738869
294 98 0 21.30518278768456 38.77877516410676 37.623648923525906
295 98 1 17.273486835915993 38.74632281289378 36.32599793950199
296 98 0 13.905056226646884 40.203093617349275 31.726487569546123
297 99 0 28.812874152574913 24.034081863620774 37.21723460558244
298 99 1 31.288037658140116 23.76233635028226 39.636227037630356
299 99 0 33.84347099520073 26.214362268965562 29.79460400083321
300 100 0 15.217032515894116 34.70454888108165 33.72363044236009
301 100 1 4.633237711472432 41.61512350142031 42.96255875752071
302 100 0 4.705667352972798 34.408226663202534 33.05415454954495
303 101 0 30.72042795404749 19.94102682013085 5.10498064784527
304 101 1 40.788575892933075 9.825687285939825 3.304438117038994
305 101 0 44.618347851848185 14.06539149916351 17.2159129619413
306 102 0 30.066290625800363 21.603161709757043 40.66562348153657
307 102 1 26.416318746643785 24.588877463776686 44.225815171635105
308 102 0 26.732468373373695 30.020443811234937 41.79029979345182
309 103 0 30.325380692239534 14.420642620520825 15.231070448294995
310 103 1 41.741624788670684 4.499513422584224 17.329772785031942
311 103 0 31.124728416324682 9.39816769251457 22.48341796694308
312 104 0 31.233817628151275 7.7336518526838 13.281194133438323
313 104 1 38.15735903872568 8.184061203616482 11.933524619783718
314 104 0 28.223913483945566 16.136493176775364 14.425603948261276
315 105 0 29.48814529242119 38.49058781774016 12.974779246266168
316 105 1 36.05403589997721 39.24198433472978 11.26528359068435
317 105 0 40.08595221475657 29.85275273666745 12.196325045762423
318 106 0 20.097438951077606 33.0533700576559 37.02435743297703
319 106 1 24.79762307803332 41.162092704090874 42.05718362056266
320 106 0 20.81475838718493 38.39469545056947 31.298511063483982
321 107 0 24.976985922235187 29.92495280628188 9.056262001292257
322 107 1 26.1993223502614 36.244940033494466 6.104759463384853
323 107 0 31.882654487613827 36.56996065651331 6.82248587793974
324 108 0 23.29619625478521 24.647065928580307 25.97077745241387
325 108 1 23.51229057589525 10.93136508784219 10.653174706658806
326 108 0 13.635602553565189 25.9548871213484 24.995043473970483
327 109 0 43.76278362459676 28.50318345383025 37.920596079644305
328 109 1 45.11320196297946 24.840218216688626 42.30293214734936
329 109 0 38.56713018649112 23.38520458324312 36.09735443995836
330 110 0 16.213604511548915 29.75512432185918 5.901836357183886
331 110 1 23.022701292052773 35.835465448552505 3.4689811864780644
332 110 0 24.176723420215218 39.710668987965754 6.100726026450835
