ITEM: TIMESTEP
41
ITEM: NUMBER OF ATOMS
333
ITEM: BOX BOUNDS pp pp pp
0 50.0
0 50.0
0 50.0
ITEM: ATOMS id mol type x y z
0 0 0 27.20394032938578 26.550319214562315 31.87910525608713
1 0 1 27.02404431723341 22.7478702543695 32.8768606560719
2 0 0 25.575882296794457 28.76020829017785 37.1999119798316
3 1 0 24.973616347145605 43.21175831124215 11.60587164175985
4 1 1 26.9967643675596 44.07580033645123 6.119628852205895
5 1 0 21.041612602116672 32.650880242701525 15.384769718562442
6 2 0 41.896551533652065 27.78149007674293 37.33181562386669
7 2 1 38.53422382315257 24.2500272263893 37.99640254104605
8 2 0 29.684687167999336 26.188443866681247 29.620489656158355
9 3 0 16.060234103553654 25.43200851675941 20.22943610839091
10 3 1 14.138979286953537 35.40916154423898 22.970773124207565
11 3 0 17.773454459065956 27.468458032387513 27.43732556761338
12 4 0 33.022862447455935 21.671989252833793 29.967850903179208
13 4 1 33.977921856991394 17.899175373152836 23.38150473586813
14 4 0 34.279329048611274 13.382675502608826 26.08577996281504
15 5 0 21.417896608443144 15.445525828866995 22.28675498137117
16 5 1 15.709481827609947 3.345842769299184 41.44677889307293
17 5 0 18.050867543465554 26.4354322949011 22.039379910973963
18 6 0 34.28547125926119 30.175807296240954 15.669782832241385
19 6 1 46.682606850560205 40.01307092738117 8.936825403318977
20 6 0 33.63710914408727 29.431164385249723 15.668630381414129
21 7 0 29.87837132447594 7.319131095306659 34.358910316615344
22 7 1 38.071828035832795 6.93240361283319 40.124596965280205
23 7 0 29.481842139046147 18.09698307351894 35.87161781917681
24 8 0 4.050462263607188 23.20935160914857 26.034646057871228
25 8 1 3.5412122105337294 14.859360065292345 8.53386314481548
26 8 0 6.818357998213666 11.906110036522339 10.146360930725235
27 9 0 18.18364422029135 12.829753545006756 23.03872932952623
28 9 1 9.363971853222367 19.182183363909935 12.34390691628926
29 9 0 12.58145635066546 18.51652580918798 26.757237307422184
30 10 0 29.511565914116296 20.33620128720194 8.903619883899648
31 10 1 34.8647523262642 15.657080034754905 9.894311783799095
32 10 0 36.58325679410923 30.21719547823829 8.069805080445086
33 11 0 25.45996292522113 43.38578968187138 13.10244446306188
34 11 1 34.89021858469336 46.74174631899655 13.154052837627395
35 11 0 33.49528787493142 41.98975035606785 17.5488422892688
36 12 0 33.58062130611911 40.7137826541357 13.793981314743872
37 12 1 42.1641074033738 38.109268403144135 10.51130215806673
38 12 0 41.98664039567677 32.84201420384926 19.893301153026318
39 13 0 33.90790008497529 30.99286503358226 43.29084700093993
40 13 1 35.79765721926238 25.697458159119382 46.54187393155557
41 13 0 34.797039018159246 24.187009442454162 41.85324906172203
42 14 0 10.054092836222038 25.566811661266982 25.24853399266072
43 14 1 13.626004854754239 29.590911165504338 22.20688777934498
44 14 0 11.723061257330487 25.384217036659354 23.962624580837502
45 15 0 29.354721036504387 40.8035465408934 18.85837437376837
46 15 1 31.88612827660769 22.047642300742865 44.08749570449221
47 15 0 27.77054017043153 21.79134807814266 44.50478191481712
48 16 0 43.42546445502543 35.72169030838735 35.42748347338949
49 16 1 44.100994961462554 36.01677440633958 46.27097666643265
50 16 0 34.32709435875254 38.003804641430634 36.450412840710975
51 17 0 40.960704636465415 18.75188873961743 29.322341687465006
52 17 1 45.36811301685772 23.304001862372886 24.566031722225432
53 17 0 33.45865514551328 26.917432323751008 23.655070194096112
54 18 0 40.40828661906985 13.759684556013125 27.595570949332707
55 18 1 34.07785057278716 6.346425084597997 25.963165611691824
56 18 0 40.2141462104116 4.376786650745836 21.593228033836436
57 19 0 28.593181725633602 11.343524231050347 11.96776559033565
58 19 1 38.40623850220011 12.149723972814225 15.92324426469964
59 19 0 40.986360692176945 18.62196711863369 12.060058006319258
60 20 0 10.983574936154366 41.18983795184951 30.207797903833157
61 20 1 12.510775520496104 45.261551300156256 30.927691360523266
62 20 0 32.34527705250216 31.1327880982351 39.08411234307945
63 21 0 11.362316422063381 38.22805599123679 28.16029307834157
64 21 1 10.199794732912943 44.56682968893219 34.82148181271389
65 21 0 14.04103787203734 35.79118160570802 29.063023193664925
66 22 0 24.240796893660523 19.43330526042137 11.55316414076062
67 22 1 32.06642529875963 18.34844325231896 10.312570007051148
68 22 0 23.96990430988486 14.245551426528392 16.688215478123272
69 23 0 40.47402515191315 15.565473092778698 36.85739068948733
70 23 1 46.86317689082032 11.10165302273366 33.84398455924451
71 23 0 37.83906417657007 8.1853521048798 34.857980484618174
72 24 0 32.98163036220152 27.865898382851967 38.59434825991945
73 24 1 39.07598291019408 31.436393900769335 41.93183552290753
74 24 0 32.881623716882316 32.96499785556355 33.23513406275291
75 25 0 47.03691811600885 35.276165769258846 11.548938973579782
76 25 1 45.81031530415472 36.026066304656965 12.154264415585983
77 25 0 36.20096339896872 33.27475761211486 9.194906361487133
78 26 0 19.46141532384921 16.03497578701475 25.74043635589045
79 26 1 23.512905556643965 13.753687168116155 28.63775406915309
80 26 0 29.294783503948445 11.425413163257993 27.928082331849957
81 27 0 21.444355112726242 17.464512870087926 11.952804455748975
82 27 1 26.727363254146837 10.398779723701123 9.514265855679707
83 27 0 15.091844341590773 6.092166968422905 20.967882979162134
84 28 0 15.561114056742262 31.23561049944066 33.64505962132436
85 28 1 7.466616819366877 27.494757446793045 29.16651276906635
86 28 0 18.140615857590433 23.907169255713 24.39040110404121
87 29 0 24.851196019243645 26.95321260803453 23.90732354616749
88 29 1 32.056242766495416 36.06811258814854 15.744306298245025
89 29 0 31.572416612559103 27.35775500399088 17.816964489100876
90 30 0 48.29842044264127 21.957540227116382 37.86705294123661
91 30 1 48.06996415452381 14.133586613538531 45.50837632929353
92 30 0 47.782645797133256 21.051694998411566 41.885099526436285
93 31 0 24.51394518457425 4.591408271670559 13.792146714435884
94 31 1 29.706236589225437 3.338863401756773 17.625474214934506
95 31 0 27.387668407419433 17.288869415848403 21.173290119189065
96 32 0 12.995115109300222 37.571333472597075 12.25701314074665
97 32 1 8.374914943096368 39.47277515291196 9.667253071334411
98 32 0 12.961633068534303 31.7485605316874 8.267380094419481
99 33 0 43.87872193444745 41.159973768885756 26.802458570054398
100 33 1 43.74239166051881 37.80854658876462 19.144331588121755
101 33 0 35.25365421252863 27.982080162325346 29.599618572243127
102 34 0 2.4763529873638714 26.9515421942767 16.663202864950456
103 34 1 0.9707514368665692 35.57815766172037 9.676997574648093
104 34 0 1.7345952051789728 27.414650836791115 15.944662433088098
105 35 0 31.906421165646165 28.720319333688806 21.956003494858173
106 35 1 38.97703125189389 31.049134776217322 20.089918780895
107 35 0 30.519477462234807 23.6687669995977 18.30952785229466
108 36 0 30.68921284126001 36.88090569569563 40.37289422798617
109 36 1 37.657738606647875 47.215389082814966 46.9526972508055
110 36 0 29.68078704465506 41.54793602545229 31.800879619122497
111 37 0 15.494132861790499 18.63719519574395 33.78510752103974
112 37 1 14.036577804183194 19.518924431515764 29.040870263645328
113 37 0 13.702305032114984 19.05870552437034 23.340136549851767
114 38 0 10.295029286458318 19.274067227162867 23.251517258944133
115 38 1 5.8610221704468275 26.07865776867128 17.134801827791087
116 38 0 10.135643502855167 33.538867607357425 18.527981097829663
117 39 0 18.592499123167112 29.861931372725635 18.208685272399894
118 39 1 24.905624520670457 32.93518134621907 15.79714907522743
119 39 0 20.091863156246795 29.417630526307825 24.43673881527179
120 40 0 18.611883894968507 43.984434688170914 24.79811031110811
121 40 1 22.863735976661328 43.129430313849504 24.039985168957323
122 40 0 26.66225803972247 36.72851452309051 29.83783840238668
123 41 0 35.93997483831811 33.376445371083314 14.458772309360553
124 41 1 36.45066443899891 32.250580490910586 13.685403599604395
125 41 0 28.786312530173966 34.289178218407635 22.92298460180878
126 42 0 23.17992420899245 42.200472289555414 33.54403971607587
127 42 1 23.51808668038049 47.29696470618117 29.932422417587794
128 42 0 28.59198825812008 46.90905659532517 32.94062011879996
129 43 0 3.054329020223393 22.89094070667072 15.130917683928308
130 43 1 4.91590168536659 20.716396304765027 14.667140846420473
131 43 0 14.97756345943361 15.549627571661661 23.546945498918948
132 44 0 11.74713250711789 19.96919388935462 32.62938631605691
133 44 1 9.443073549813054 21.10217614719691 44.40816849652193
134 44 0 8.107212960129281 28.49369461058651 44.566844340238134
135 45 0 27.994612727832134 6.92935171779645 4.405484255525958
136 45 1 30.13119091462335 3.449409713677661 1.417378672257899
137 45 0 28.811840177412783 12.37054046554838 1.8989087115485355
138 46 0 4.903067481357814 8.861014641195489 23.058026541234213
139 46 1 3.1743447273387853 7.956972797247507 29.507065082612204
140 46 0 30.687103681493163 23.886987089306647 36.85464703062238
141 47 0 26.267981977940984 21.74722367289487 40.04881324686436
142 47 1 45.622213352051986 5.455926982056031 38.59945835696359
143 47 0 37.62494474251562 6.765720007365522 37.08281416982697
144 48 0 6.853764762796746 22.12468676118343 10.206708702065505
145 48 1 3.649534358790591 17.41358456320358 3.395803157813426
146 48 0 13.242258344829503 18.487678026485234 7.936289207143341
147 49 0 21.840495587253766 27.061438265406135 30.460530655063003
148 49 1 14.605383687483892 20.00874436142648 39.54135966460254
149 49 0 23.691857608434255 27.42965388706082 41.389587785270145
150 50 0 9.516485288725258 47.65599333641432 12.469069392794369
151 50 1 7.419765915179843 46.2326706283524 12.900339768517522
152 50 0 19.432767021087983 39.47835311957601 20.488916284903503
153 51 0 26.16440660796284 29.75575411592633 14.136029409829506
154 51 1 19.189330692190335 35.702534798433746 12.34316924847808
155 51 0 15.825362847344993 32.01485548159021 13.1389894810441
156 52 0 45.51352422498207 25.630846905161764 37.507245179444
157 52 1 46.90830705100076 31.099750368860345 42.27341721664016
158 52 0 46.98975098284125 33.39693823383404 40.04771861278418
159 53 0 17.296092204759557 24.957190587286654 12.567070653619608
160 53 1 6.155647377811554 15.78715531863537 9.182814640909378
161 53 0 9.879246582400448 12.868609920555784 14.956588630416707
162 54 0 17.3827672074741 34.0557079073882 35.357986191877785
163 54 1 15.367059966848753 31.89180032247954 30.097243862559804
164 54 0 24.58976371330883 27.066693661212607 29.23344629287392
165 55 0 10.770678860024026 27.236009611383263 18.932456494505608
166 55 1 0.9184815104137432 40.95123978388282 23.138012075867522
167 55 0 12.16592344696284 28.49811556942152 23.690162958237973
168 56 0 8.704102734276379 22.560058012394954 28.28421499256113
169 56 1 5.732718912287543 13.748341482733819 22.901823009631336
170 56 0 5.456952213408531 14.548679296158264 26.997135675377386
171 57 0 18.40201046026727 21.693420802192765 33.93816023534788
172 57 1 12.656446938976599 18.09425305889209 33.054185853598796
173 57 0 21.01344376230718 20.45589352658825 27.857298268804666
174 58 0 13.165234799124967 29.10314085054245 31.35681265884673
175 58 1 17.305392259707162 26.646127219038647 42.280476600780034
176 58 0 13.984531042784713 24.83858154690703 31.55481080761343
177 59 0 13.06333855157922 14.232927730061126 24.62392038452798
178 59 1 11.789084957293742 8.016439356476512 29.01861226466083
179 59 0 18.004617941960987 14.774052247355423 34.18737730502059
180 60 0 20.680424379827485 43.20382748470629 10.19840467918767
181 60 1 28.42212891816736 47.16198570281357 3.100388553277407
182 60 0 30.51591031978623 45.464908282523346 9.20123116926271
183 61 0 21.39802805576116 30.886624183847374 25.12938597484325
184 61 1 21.619903295975647 26.673260763723498 32.8396624675417
185 61 0 16.007938646453425 22.747369928865876 30.358223362356753
186 62 0 14.747732828797504 47.33536908301042 39.27035712611451
187 62 1 8.530538831559697 48.339933027828714 42.32704378570923
188 62 0 13.496980700823237 44.78498450967357 37.79561987611405
189 63 0 45.46415760595875 14.690725372984433 20.76132052286754
190 63 1 44.87255484771092 5.426012343950152 10.686837070263666
191 63 0 38.025344893498065 16.420883342511132 11.482854046985414
192 64 0 40.98615203638098 17.31417298932669 19.476193929314434
193 64 1 43.37603614246186 9.272251393836646 31.907360423451077
194 64 0 37.38917011110629 7.4112563418930995 33.13301710577309
195 65 0 6.768138245221768 32.111921761978145 26.578031410973317
196 65 1 5.467577254673931 42.73027859102289 35.042687449513615
197 65 0 43.716643786493385 7.435194561829748 26.49156848862978
198 66 0 34.208912985132756 31.323464155780904 30.22196565585094
199 66 1 22.826320533087795 20.178925597878678 46.860047294159486
200 66 0 18.640316300444713 18.75434843238142 43.51241171256055
201 67 0 10.75508417598319 18.029918492177714 24.96528446847499
202 67 1 13.910083288830089 13.131156047901307 25.296736660000814
203 67 0 15.393598886853969 15.94167775485694 22.7214956437789
204 68 0 26.674024789686637 23.092844018762605 24.160219791259728
205 68 1 18.60990264440142 29.431642402654642 31.130030699299862
206 68 0 18.67528807533583 35.470951796579556 27.54805963709026
207 69 0 44.35650272790292 39.79904310984673 38.395947668899886
208 69 1 47.70163630008552 42.80491007526494 37.02215774428402
209 69 0 44.31673004943043 35.844581484997825 28.937660726158988
210 70 0 19.553636388557145 31.76321874998131 42.86575746515264
211 70 1 24.421632162955706 36.40754253643794 46.516113687052126
212 70 0 19.539736599629016 28.116727357711646 42.00839028397928
213 71 0 44.8091540345286 27.18115727422277 27.59851024457219
214 71 1 47.152247754637195 21.57906114513442 20.46821132845198
215 71 0 36.463216728189195 24.80613028395692 23.571932169349534
216 72 0 33.81079425481908 9.596678004152377 13.995006245061184
217 72 1 30.207756911130264 11.400190530646276 9.75253026365491
218 72 0 33.780880462958784 9.007249684007231 13.593287519462944
219 73 0 16.382088420553128 36.358563754266655 19.15218165412532
220 73 1 20.216216143330264 41.0667919784727 8.280595164943989
221 73 0 18.49098262637993 35.341460533327464 11.229010777281376
222 74 0 25.790556302370838 28.870679718336838 14.484255173643103
223 74 1 22.913730808499288 32.93486574091098 6.81589368804602
224 74 0 24.94034166968543 25.10756578184607 15.855450760758112
225 75 0 14.114860599820155 24.81142910911544 22.644910383012313
226 75 1 7.100613669294691 20.143769146554586 21.235880879265597
227 75 0 9.379819526966743 14.730701583103272 25.58880410110796
228 76 0 24.03238814757877 41.604431378235134 14.724707184451344
229 76 1 31.124212624991827 45.24207638497123 7.345476777252774
230 76 0 34.672417915813966 33.61783785119045 12.299525075121648
231 77 0 13.55035862146054 9.218594867289513 23.20669985154688
232 77 1 11.347840756491465 2.7540922198731095 24.966473219108167
233 77 0 19.68900738004167 6.883414350078344 21.247827371591423
234 78 0 5.232783057877534 9.811657997706313 6.517892918300143
235 78 1 6.03555462177269 12.527685064048494 4.5465481556972644
236 78 0 5.122530081425775 21.22791112913008 5.381369061924841
237 79 0 14.298999895595477 18.94594396571025 22.373410620601263
238 79 1 9.306428228046364 11.502667736792771 22.41915865957429
239 79 0 13.974872573877269 12.930212760265935 27.140693698315303
240 80 0 42.388729130709415 28.303756121190325 31.019668521636348
241 80 1 44.04962359413661 22.004280644502977 41.87061072655434
242 80 0 41.45777731366979 29.402182120546325 41.174296237942876
243 81 0 21.347442127998256 14.869141474163031 27.670935881647928
244 81 1 25.776805091856474 8.499516260803388 36.37096538986079
245 81 0 26.296954504092643 11.305734203313856 32.712003764841775
246 82 0 35.23130298695208 2.638930566424658 7.689780715263947
247 82 1 45.93771912273643 0.7619913982553963 10.134020866791339
248 82 0 24.258432963871986 41.97725196544102 17.60543935210332
249 83 0 21.462564843692693 33.33896030289021 39.466495953155935
250 83 1 15.793889222619068 27.146474095448546 44.052091871806525
251 83 0 11.193724276679381 15.663117156209369 27.190756898069864
252 84 0 16.85889153623863 29.398190886573484 20.18465900278266
253 84 1 16.28792303638109 40.0342091318166 23.36548887267836
254 84 0 17.908571473450824 33.975063858953675 29.190883409895733
255 85 0 47.222446224173645 42.255685121142236 28.39817642988241
256 85 1 46.73289856879848 38.78085074989125 32.091674743923676
257 85 0 37.46545730385159 31.171762626602117 25.825536305704162
258 86 0 30.865982041947596 31.1526205364862 36.242694276187656
259 86 1 24.8640183243379 37.15950280683752 41.38502980209508
260 86 0 19.56702448110572 32.87974829774615 41.78087461485118
261 87 0 22.97996423819935 4.703305597761958 16.882450866619724
262 87 1 15.873457397454093 4.852579068537538 20.30070978598318
263 87 0 12.687045092810505 11.466276961089285 18.18154178969303
264 88 0 40.80171355571462 15.531221340348662 23.012367049060643
265 88 1 44.48272909768553 19.203017000134633 13.234267733062406
266 88 0 35.82552215915164 20.698605344322353 9.799088314239745
267 89 0 42.335040065538024 28.075883856935896 38.47275032690262
268 89 1 39.57087432377509 34.95967373108763 46.09498115853107
269 89 0 33.28590943462638 37.99276862667292 44.220837614163706
270 90 0 29.88592198380621 15.531552573881473 9.992254736109983
271 90 1 40.556689036872086 7.529723451747444 11.661899309482164
272 90 0 32.428180199242135 10.66316358218831 18.656086771418302
273 91 0 19.3317782486505 11.01461246660572 6.309533222341461
274 91 1 16.436880588522587 6.097426941389922 9.467156364528362
275 91 0 21.74240639910833 14.825366026294793 28.814890538014087
276 92 0 26.931846048921834 17.796442003203424 26.50254152045252
277 92 1 9.101436443274421 33.99892723103269 32.2031126199598
278 92 0 3.371922330444439 28.861375057633325 46.00167606807199
279 93 0 15.678420622387751 10.807133597478618 15.507737353021458
280 93 1 20.975091447448683 9.53404101067234 8.275394417037319
281 93 0 26.541219992234875 13.311436208209242 17.722066186571833
282 94 0 28.21770568759287 37.6840318051227 31.222064740123905
283 94 1 25.162072880179412 43.06169776312655 36.47764284469196
284 94 0 18.08526919110885 40.926827559995246 39.30941133361029
285 95 0 16.590533423502066 15.078233888903847 39.26535482000713
286 95 1 9.870419327446683 17.4070279615123 44.63873240656635
287 95 0 19.42836815335485 16.607616204149924 37.36431266211968
288 96 0 18.933141904465447 44.369667442162935 19.210944002441295
289 96 1 14.91860595704006 42.40521899136476 23.96705822428907
290 96 0 22.89756961839501 33.39791933129962 24.851812707123234
291 97 0 26.076523128060728 8.235432238100271 15.179741868386571
292 97 1 31.698692522684926 2.0812467522931075 5.034632344915533
293 97 0 31.75006374124467 13.937083643211082 13.010215985370401
294 98 0 21.009407443990444 38.776967816336466 37.52709086366752
295 98 1 17.27522337057039 38.75364290926805 36.3092483560769
296 98 0 14.173044672576323 40.08777781767374 32.091036338765974
297 99 0 28.981353740505906 24.015539680754802 37.382095953161596
298 99 1 31.291258058954494 23.776672052142267 39.57304955182871
299 99 0 33.62346587627799 26.003561282218524 30.640531041258505
300 100 0 14.276494622252095 35.31706991867242 34.54246556955991
301 100 1 4.692271623181953 41.53764269729331 42.85748697156098
302 100 0 4.701657404322137 35.03539450077039 33.91647386129382
303 101 0 31.611034598918934 19.048151031898957 4.949146450285893
304 101 1 40.754279236114684 9.904832020190657 3.3912236381139738
305 101 0 44.276489013959406 13.691953068027356 15.98317243454957
306 102 0 29.776869472712285 21.840866840303114 40.94754965959078
307 102 1 26.43593546881298 24.601021857500278 44.196141657078314
308 102 0 26.707986868853247 29.588441208990307 41.98315967317231
309 103 0 31.33583727590586 13.54157002224476 15.418386201849394
310 103 1 41.62055822856005 4.581065062327207 17.34635828125095
311 103 0 32.05161654956577 8.971497224899318 22.03185098286687
312 104 0 31.797865761478317 7.771621108681713 13.17148832732985
313 104 1 38.06857512364992 8.225029626128244 11.95392091583512
314 104 0 29.093419326472134 15.439321408100273 14.207398467970114
315 105 0 30.023323607388775 38.5497782179862 12.83585197779572
316 105 1 36.04230254086892 39.187926618974195 11.27893801679836
317 105 0 39.73850347030437 30.658493051239795 12.116770341101878
318 106 0 20.501322945918183 33.750944483780316 37.455564529336485
319 106 1 24.750793785173627 41.10356318803795 41.97183053175023
320 106 0 21.160140935766847 38.63371932214796 32.23298570499461
321 107 0 25.07807514118045 30.442314800951895 8.814807621211553
322 107 1 26.22103453746021 36.214280251699236 6.123358172042631
323 107 0 31.434316466682706 36.543203669447216 6.766422110094852
324 108 0 23.31331329535904 23.412852801456342 24.591828296426087
325 108 1 23.45522098834797 11.093487513453596 10.820456432954558
326 108 0 14.531615931626952 24.595199252848666 23.697591723356787
327 109 0 43.86882906731963 28.213377800468333 38.26641850633979
328 109 1 45.071905286993534 24.850523156043657 42.2484978613636
329 109 0 39.1210878914514 23.509576422773865 36.62354456854246
330 110 0 16.793075030857747 30.273184974588865 5.695445243943759
331 110 1 22.992047604689976 35.82154823630352 3.494312563601061
332 110 0 24.087625181347047 39.4153363350234 5.901660772285305
