ITEM: TIMESTEP
44
ITEM: NUMBER OF ATOMS
33
ITEM: BOX BOUNDS pp pp pp
0 50.0
0 50.0
0 50.0
ITEM: ATOMS id mol type x y z
0 0 0 27.177942751544226 25.9573934348345 32.03313082207811
1 0 1 27.0128967548517 22.852821660073396 32.91210104975088
2 0 0 25.841533619574687 27.670070891465368 36.411208725076385
3 1 0 25.31911677468001 43.35114906092383 10.661932852414617
4 1 1 26.902549391682328 43.92739093978169 6.291555446790411
5 1 0 22.20488768884774 34.88548382465102 13.577422185185688
6 2 0 38.825054906497705 28.768329199677286 40.8823899828017
7 2 1 38.372366280592125 24.379686209463664 38.023637141552086
8 2 0 31.365932939146706 25.83687976699146 31.26219805371484
9 3 0 22.36381630109276 34.50302946204673 22.47941987749808
10 3 1 15.43579145087541 36.446146706900194 23.077904460532853
11 3 0 17.962678001040548 28.777651553258867 24.80914346840769
12 4 0 33.19706110992759 20.98092259711585 28.770563759865038
13 4 1 33.97008289046746 17.894939565869354 23.48453930960366
14 4 0 34.224495084098834 14.164229338889903 25.62887516450134
15 5 0 20.575947443356604 16.96591805074715 22.144184409509503
16 5 1 16.839806899729464 19.249078599825037 26.473852096594765
17 5 0 17.792559642095615 25.95570592901009 21.980986185160376
18 6 0 11.960278605119 18.811542129165698 18.182203441956677
19 6 1 12.356619976168556 21.849206658630358 14.041511647792268
20 6 0 11.359918234532977 18.2341123242964 18.16584361670325
21 7 0 31.410068251352794 7.258580326644416 35.439508688429925
22 7 1 37.872201421014665 7.071977184329397 40.00571790869378
23 7 0 31.145350731441706 15.924387018643724 36.692508753034154
24 8 0 13.950882614957928 17.943291312427483 13.962817159280743
25 8 1 4.64529054866716 14.516997047682995 7.844091617602888
26 8 0 6.720297443217974 12.208472019668081 9.550915679080406
27 9 0 25.588334199940984 10.753026121765286 29.06667550237732
28 9 1 26.94019525574977 13.53370954188107 27.43896355958386
29 9 0 22.05919382014816 17.022551220261448 31.596238800855907
30 10 0 30.436295468054976 19.089206586983643 9.297888302777299
31 10 1 34.63942847604863 14.707441637516853 10.494586341331376
32 10 0 33.648118580646084 11.493259641213562 17.379084300918603
