ITEM: TIMESTEP
48
ITEM: NUMBER OF ATOMS
33
ITEM: BOX BOUNDS pp pp pp
0 50.0
0 50.0
0 50.0
ITEM: ATOMS id mol type x y z
0 0 0 27.160053000463503 25.610396745421614 32.129474080087114
1 0 1 27.00417394250189 22.914977609110732 32.93547659820331
2 0 0 25.99898738529907 27.022573272748357 35.94085782232331
3 1 0 25.517589163085272 43.421336529812955 10.112555439671432
4 1 1 26.846853126365485 43.83960455748052 6.392978476360826
5 1 0 22.897555561114377 36.21987849092027 12.50403109684062
6 2 0 38.76173481824659 28.195260693608436 40.504560607192374
7 2 1 38.313105655841696 24.428485203705822 37.986154268141235
8 2 0 32.37742418718242 25.629164966390267 32.239753523394874
9 3 0 21.405465341920905 34.76831688410409 22.56318931758899
10 3 1 15.517768679435878 36.36194026343945 23.087969679446115
11 3 0 17.609393271869525 29.85966741992147 24.564330562047537
12 4 0 33.301542928662954 20.56263079233198 28.057806433878017
13 4 1 33.965548335499584 17.892028085685588 23.5456104561022
14 4 0 34.192568756628106 14.629106034927975 25.364492772583443
15 5 0 20.07233176017219 17.27749528951174 22.726030306472243
16 5 1 16.879552415720426 19.288785562657104 26.398039493636045
17 5 0 17.660246087251764 25.008817410300484 22.61214189902455
18 6 0 12.013592203858442 19.205795222724007 17.64765704208293
19 6 1 12.345185717853337 21.794853322408347 14.108956677421912
20 6 0 11.489551816569264 18.709517381491743 17.621270006461465
21 7 0 32.31315910823692 7.237337231458156 36.078446066991404
22 7 1 37.75435067127971 7.154421740989544 39.935589787289736
23 7 0 32.12787194710302 14.626517046739767 37.1756214429678
24 8 0 12.586554097642914 17.43960549414258 13.065875411069147
25 8 1 4.7454361116310535 14.531750768092516 7.912405801860231
26 8 0 6.482297691657018 12.476093531579442 9.354829608431404
27 9 0 25.743627371319686 11.07597370073529 28.8792468354756
28 9 1 26.8881624878965 13.543870447285911 27.486717204084282
29 9 0 22.736423221602475 16.537026413639424 31.0196099702912
30 10 0 31.003716225269418 18.495111788485847 9.463759244169836
31 10 1 34.59545533047631 14.71630509446405 10.54445797086165
32 10 0 33.78426820768581 11.9455390158361 16.41526690532342
