ITEM: TIMESTEP
50
ITEM: NUMBER OF ATOMS
66
ITEM: BOX BOUNDS pp pp pp
0 50.0
0 50.0
0 50.0
ITEM: ATOMS id mol type x y z
0 0 0 27.153380992450618 25.485808209142277 32.16488995306146
1 0 1 27.001006741325188 22.937347833166633 32.943943916698494
2 0 0 26.05617626432726 26.788061827375902 35.769878148392415
3 1 0 25.587921435689356 43.44399342322968 9.916278131266413
4 1 1 26.826774890069004 43.80784471616628 6.429572804500279
5 1 0 23.148685028627202 36.70440626796391 12.115513108106787
6 2 0 38.73674178342973 27.987371995560775 40.36461736107436
7 2 1 38.29221751889692 24.446241350040214 37.97230469868943
8 2 0 32.7455750966926 25.555266736776115 32.59573662336201
9 3 0 22.100895408617536 29.592178006101054 27.174723960320705
10 3 1 15.795163886653212 35.35801469144375 23.915045544202233
11 3 0 17.63208157964611 29.6651634190819 24.94671204909943
12 4 0 33.33956029944063 20.409534143386296 27.79938944809535
13 4 1 33.96389064310354 17.890964026959775 23.567635949225437
14 4 0 34.180743085053706 14.798902966295763 25.269876986391044
15 5 0 19.889653952086597 17.392845062144026 22.93585106076005
16 5 1 16.893855901858608 19.303065258947328 26.370597672809843
17 5 0 17.61339637747389 24.66396441072939 22.8399632425065
18 6 0 12.032847112338935 19.34788676199827 17.455186778683206
19 6 1 12.340989956598028 21.775256134103163 14.1332856701051
20 6 0 11.536201090463363 18.88097398762185 17.424762224659016
21 7 0 32.6384769241067 7.232823298899342 36.3091376255632
22 7 1 37.71183353159148 7.184241547068212 39.910297782540546
23 7 0 32.48240705908243 14.155208536244318 37.34945007217509
24 8 0 12.091504525768299 17.255947094759282 12.740556207944518
25 8 1 4.781619869255521 14.537139318831626 7.937133852963288
26 8 0 6.398821366314579 12.573633035410534 9.285700712475949
27 9 0 25.79879244983035 11.19404612476853 28.8122611004286
28 9 1 26.86940228991384 13.54746454167644 27.503942213802855
29 9 0 22.982144388235945 16.359780690045124 30.810514034715133
30 10 0 31.20970829289646 18.27799848246759 9.5263499581004
31 10 1 34.57956958694169 14.719497610093185 10.562404229478439
32 10 0 33.83233123379803 12.11141407563559 16.06446467933976
33 11 0 28.676489453159647 44.51480011201342 13.136265450804787
34 11 1 34.663151721641654 46.57617868542768 13.240494697356478
35 11 0 33.91169412250747 43.51064885398123 16.131032233114265
36 12 0 23.830601865766038 47.66842783856396 34.35732554837492
37 12 1 25.55250528974129 48.103729199209404 38.29376691866259
38 12 0 23.08898249569951 40.76596803001109 32.18365790969607
39 13 0 34.51326687320829 29.283619871182086 44.32336728202055
40 13 1 35.74106318164475 25.774549923625607 46.38838285607359
41 13 0 35.097133886765555 24.66322147116148 43.27540779787806
42 14 0 11.18181253928027 26.841079525126347 24.28626647889676
43 14 1 13.51825904891487 29.433863396819845 22.298449835182193
44 14 0 12.294515020175824 26.642615899457635 23.434030176712742
45 15 0 31.475546619749277 23.35652625065422 41.79054840144044
46 15 1 31.822329577854106 21.904790770643885 44.26543550489606
47 15 0 28.970799735780833 21.81060192736463 44.45599720620257
48 16 0 43.95353204486642 38.96880332994807 39.69252226575781
49 16 1 43.924452347301624 36.57624606909571 45.92651207623138
50 16 0 37.79097915852609 37.59665444810292 39.9179777570852
51 17 0 25.74639599242445 33.84185830134328 42.292627516963776
52 17 1 23.658342146796535 40.30357771874944 43.23475096779908
53 17 0 20.65653252293735 39.07812505355289 38.5476283984463
54 18 0 32.86690475992413 11.775439662414097 16.419023605351885
55 18 1 40.999028498563135 3.2918526909776897 18.672596952988233
56 18 0 40.42671825225127 3.986335507140869 20.532786467251885
57 19 0 31.978840669389772 11.646908575760847 13.312849574999845
58 19 1 38.250748665822165 12.265515563693294 15.759789180371941
59 19 0 40.088813624023366 16.465413309838066 13.329521277789437
60 20 0 11.394851543095191 42.41570096781494 30.402992226783944
61 20 1 12.421144691671822 45.19858168732612 30.88505370659024
62 20 0 15.19784672673469 42.34863937951795 31.9757891106429
63 21 0 11.126643910152925 40.24148240345407 30.532676185177923
64 21 1 10.32757987988626 44.23315022708816 34.58172417189425
65 21 0 12.732659006542452 38.78666763691446 31.03699740000206
