ITEM: TIMESTEP
55
ITEM: NUMBER OF ATOMS
333
ITEM: BOX BOUNDS pp pp pp
0 50.0
0 50.0
0 50.0
ITEM: ATOMS id mol type x y z
0 0 0 27.150794019053503 25.48678502912657 32.16781916701365
1 0 1 26.99753862638383 22.937488485994148 32.947931104411495
2 0 0 26.053155724156866 26.78982545813684 35.77403594845892
3 1 0 25.587644320117462 43.444197320579235 9.917684960675432
4 1 1 26.826774003347655 43.80808341454133 6.429330027952834
5 1 0 23.147082048560492 36.70160656529309 12.117912126640546
6 2 0 40.83878513544073 26.711861874223533 37.503196170699894
7 2 1 38.40761349098329 24.357775953626174 37.80277413322713
8 2 0 32.78155781230852 25.526158232151168 32.53665018454325
9 3 0 15.415743830801958 28.82184285581239 21.186850872059708
10 3 1 14.256077754369212 35.030853691987 23.006581684339654
11 3 0 16.544315659831323 30.131408212908344 25.906913659991957
12 4 0 33.33944977361885 20.409882835428565 27.801062260151397
13 4 1 33.96415578301019 17.890042031329852 23.567778447200862
14 4 0 34.18299647166125 14.790920187463003 25.27219173887732
15 5 0 19.36206366796623 11.175052677441014 29.131311739369764
16 5 1 15.886269206488697 4.1427812281694605 40.58273910814855
17 5 0 17.22108525966629 18.0491895117252 29.046659780572686
18 6 0 40.17899536517039 40.345752597051906 3.0515435643556557
19 6 1 45.936870555325285 39.728384797864244 9.101323373038685
20 6 0 27.69584653744878 35.57218302907356 16.24208377685879
21 7 0 32.63671620928575 7.233282058666024 36.30732577445157
22 7 1 37.71206924846387 7.183977089083211 39.910511528899804
23 7 0 32.47958944088562 14.157667861383963 37.34865626660465
24 8 0 3.8802830161349493 20.199203306904742 19.755518450661803
25 8 1 3.613998174116133 14.990380501027467 8.952760928449667
26 8 0 5.8356492452521715 12.82394785272605 9.725721510074612
27 9 0 15.07827347300538 15.073646577449233 19.318841652110066
28 9 1 9.626644118414044 19.028986845055854 12.891395313747253
29 9 0 11.484355684647337 18.72381692432129 21.717280075536696
30 10 0 31.2685909036347 18.860878362702625 9.229240028827109
31 10 1 34.79453791363425 16.069158212404492 9.834540734173299
32 10 0 35.954893781585554 25.09376816885848 8.710192135119533
33 11 0 28.674221612835623 44.5138531463756 13.136381701330567
34 11 1 34.66333443215883 46.57626177608708 13.24048173522457
35 11 0 33.91118927303735 43.509472230476064 16.13207360695522
36 12 0 36.49559392973154 39.80595679625363 12.714308591599597
37 12 1 41.98023873000714 38.051987036944055 10.779507469645322
38 12 0 42.01260794809939 34.66483032386833 16.678887209780697
39 13 0 34.51283192924247 29.28475361215634 44.32260858560605
40 13 1 35.741110791078775 25.774469676703877 46.38857172167466
41 13 0 35.096927486031554 24.662995328896194 43.27440565230479
42 14 0 11.181925878295672 26.839319472893255 24.28800684610218
43 14 1 13.519770485250021 29.432836495825054 22.29986597795225
44 14 0 12.294948745063975 26.640817597365377 23.43547658173805
45 15 0 30.26637885711807 33.931172140193816 28.102886428101627
46 15 1 31.75478320176213 22.46818800381633 43.5231114039417
47 15 0 28.96051930698415 21.93470939577624 44.29076447046698
48 16 0 43.61731735522552 35.831368086428775 39.11520034171179
49 16 1 43.87439773323025 36.05367525848766 45.82750495601377
50 16 0 37.76116802031064 37.30384956662715 39.85828152824012
51 17 0 42.3753075393137 20.27589470906163 27.74130879925582
52 17 1 45.02127163555133 23.28865019653202 24.643811088770246
53 17 0 37.593386195380575 25.63913410115048 23.99191325582434
54 18 0 38.273352262694296 11.223868787722344 27.02183919389442
55 18 1 34.33670877564883 6.462353231298408 25.908226457597063
56 18 0 38.20727133172877 5.057310150915977 23.04605835180447
57 19 0 31.976577746258585 11.646797785231168 13.311817321586158
58 19 1 38.25085166182482 12.26547046242667 15.759975274818354
59 19 0 40.08914774411445 16.466903485228706 13.328573404900078
60 20 0 11.50439326341867 42.3380245197962 30.449013752126326
61 20 1 12.92949819999869 44.86958231802541 31.098184225065538
62 20 0 25.12513604314416 36.25619503628557 36.11466056622304
63 21 0 10.983075632164423 40.335769467899844 30.386564602911488
64 21 1 10.305943523436092 44.247539639737454 34.55982152494586
65 21 0 12.721907596145394 38.792192369777965 31.02364774327943
66 22 0 26.804367642768533 19.05889236852605 11.165297706079373
67 22 1 31.733286435874945 18.283540956198404 10.473279075634395
68 22 0 26.731382412444677 15.66405154808293 14.495031434692915
69 23 0 42.573079190725835 14.064555102470884 35.855294669662456
70 23 1 46.54205492440717 11.132520812046344 33.927453515336346
71 23 0 40.87761663164384 9.191967434259746 34.52523190616724
72 24 0 34.97225869675636 29.05081869191169 39.66528699301214
73 24 1 38.81989157861329 31.396018561734 41.678805858810776
74 24 0 34.98837746910194 32.42604650033617 36.21255728754482
75 25 0 46.82294043478028 35.38075421063974 11.631126761286206
76 25 1 45.617533455743974 35.96061365037423 12.085777117746145
77 25 0 39.49979973020575 34.21698247637339 10.208802878540128
78 26 0 20.748742117615695 15.3140153388459 26.640664787337965
79 26 1 23.54915749876792 13.751582590111141 28.568041732777694
80 26 0 27.427392486415197 12.18007034016771 28.143249300197972
81 27 0 23.179991550368904 15.06003707892012 11.177108211368488
82 27 1 26.3612493555719 10.450872231253117 9.817100672218542
83 27 0 19.21727910079997 7.643556732521591 16.896070578771536
84 28 0 12.843471749116972 29.9446242350218 32.097561235246815
85 28 1 7.866536752931983 27.496439435612114 29.158189361693463
86 28 0 14.459487290032062 25.171199989423393 26.07111242390063
87 29 0 27.38564604258232 30.126608502028933 21.042085031237274
88 29 1 31.88943711168973 35.688939892297604 15.964948533100733
89 29 0 31.70686650007804 30.251141689498056 17.15197985196413
90 30 0 48.21901216652099 19.289834293645754 40.48218969252427
91 30 1 48.0689865101504 14.441131236457267 45.27177799348316
92 30 0 47.87771623851889 18.79867332137329 43.05554142920742
93 31 0 26.178622848919776 4.241928830143777 15.04159486338917
94 31 1 29.552351602386423 3.668108861802637 17.626605332957663
95 31 0 28.1851452835783 12.370406863011281 19.905749839483246
96 32 0 11.56864199393278 38.14087604153602 11.445511642764009
97 32 1 8.5598810433577 39.2746133820917 9.687902891341706
98 32 0 11.428656476716958 34.34959275588967 8.748471968366932
99 33 0 43.79823624539204 40.00020931038725 24.287867428594033
100 33 1 43.55849340306349 37.66149060062569 19.532134149746096
101 33 0 38.276522915153734 31.49476455568268 25.909404511877703
102 34 0 1.9622721944694002 29.89444321582285 14.279680985652536
103 34 1 1.0189802628517575 35.22198078837248 9.958203116240824
104 34 0 1.4769903583057065 30.17058034037522 13.828890134550505
105 35 0 34.20327322177617 29.46106587052484 21.336055372972076
106 35 1 38.652496338636716 30.84402866337576 20.089802782620925
107 35 0 33.41518034314942 26.209697465389198 18.931361078476353
108 36 0 33.10421203783255 40.489374716826596 42.61982895172401
109 36 1 37.33049489744962 46.866083908238735 46.47554179373816
110 36 0 32.50168904560971 43.528353436108745 37.18843290153183
111 37 0 15.049013549660916 18.902593344246185 32.308596460810634
112 37 1 14.057350340964913 19.49365013890471 29.019834497010994
113 37 0 13.815293656759655 19.19787160672162 25.152853947155396
114 38 0 8.794692124888716 21.633496438306594 21.16359029878131
115 38 1 6.043525306937085 26.08976537902261 17.293032187275294
116 38 0 8.7158115790361 31.0017106361054 18.084254019475868
117 39 0 20.64382483112464 30.856524337138865 17.44827484440636
118 39 1 24.675709349563046 32.79835131419266 16.029229779436417
119 39 0 21.71919513470351 30.61231183765041 21.48394046542251
120 40 0 19.885587705530817 43.707961831168625 24.594383472192842
121 40 1 22.86568681611901 43.01071129726126 24.175556014651587
122 40 0 25.35739726760849 38.9044995833839 27.872412450083473
123 41 0 34.83751507165404 31.54361963576541 14.407971858518087
124 41 1 30.92853139439678 25.523602072194645 14.470191001670258
125 41 0 30.22281322883723 31.998066985536422 19.829776037450884
126 42 0 23.30380922461176 43.827518034330645 32.399564754617906
127 42 1 23.61063271967823 47.18860005482347 30.06267320654791
128 42 0 26.987363300802222 47.01587910938708 32.00107391515467
129 43 0 3.5682546207575925 22.314667619949272 15.044479051097086
130 43 1 5.105917270612676 20.638085533433056 14.868156351849752
131 43 0 11.42330296886154 17.37890678285362 20.41707128264685
132 44 0 10.940361585449175 20.39327084993317 36.726651119419024
133 44 1 9.465380701587858 21.228316647188983 44.15831752949546
134 44 0 8.556942069028752 26.051928993419526 44.467211771083534
135 45 0 28.638876399438768 5.895658531418284 3.5012885151919892
136 45 1 30.06350419785537 3.701355526526153 1.483463746921879
137 45 0 29.250379334239632 9.373250901452995 1.745286069822613
138 46 0 4.457365200138772 8.634334281305897 25.177427279384187
139 46 1 3.832374976918306 8.336039748069096 29.544741150874174
140 46 0 20.60429188793077 18.048573274026648 34.1324510980894
141 47 0 33.26855638962736 15.831407418494777 39.515546923948776
142 47 1 45.02387743123397 5.848691232260613 38.60100244127145
143 47 0 40.197789942821146 6.397254560021934 37.59132821538334
144 48 0 5.8128765682321815 20.544760575777634 7.933930889202865
145 48 1 3.9196946192399413 17.534255187204362 3.6336433525279426
146 48 0 9.96046535399412 18.137046499790483 6.403394698248279
147 49 0 19.362913996034514 24.636884294674882 33.68054571480737
148 49 1 14.957143793931857 20.32080547437665 39.38471070931567
149 49 0 20.570435659852098 24.88522479242027 40.71009957248263
150 50 0 9.053088651189984 47.31188668902282 12.584314604115324
151 50 1 7.714712826543044 46.1041705397632 13.061468181737316
152 50 0 15.177013206177936 41.878485104563154 17.795614704979272
153 51 0 23.78728121214516 31.7583995575416 13.529962594733826
154 51 1 19.270260859343978 35.50798323483922 12.392247647886789
155 51 0 16.878431017314227 33.12302410688819 12.900608800681406
156 52 0 45.97227573627204 27.435286146831388 39.067602961077036
157 52 1 46.88121326175158 31.025884588840864 42.13981992527133
158 52 0 46.96457765786861 32.774390886720134 40.624885272275044
159 53 0 13.375117877325843 21.705324205141682 11.394953136904958
160 53 1 6.473713304999436 15.927903568213496 9.373716093552916
161 53 0 8.699334346475052 13.864479935144558 13.071961000093019
162 54 0 16.77648617449417 33.35058692736991 33.68384835337423
163 54 1 15.602211452143514 31.83191322440622 30.182101532586376
164 54 0 21.433226951281426 28.730332680369326 29.549714022614133
165 55 0 7.306954604752082 32.07184762365277 20.434374664003098
166 55 1 1.382351300978383 40.3758575330123 23.05756439903116
167 55 0 8.207690021617571 32.86839427857234 23.475426759948316
168 56 0 7.681498277689635 19.53256035217978 26.446191200642335
169 56 1 5.791203097823064 13.950632326276823 23.08946944875265
170 56 0 5.543343237334117 14.33979475699193 25.832945628763348
171 57 0 17.699314018269188 20.844868372163635 33.3131560440999
172 57 1 47.204790451531515 21.777396949419916 34.76780678899556
173 57 0 19.309889056289585 19.987055886468877 29.34799171288167
174 58 0 14.585501720903459 28.245044460577127 35.10561590074125
175 58 1 17.130670853585897 26.66473362151059 41.83684870754434
176 58 0 15.11230831355562 25.472419904314425 35.2169949901736
177 59 0 10.812537988069078 3.4529485641545623 11.292837250544004
178 59 1 11.920509185246997 8.100434397196247 28.65115051126136
179 59 0 15.871154575357913 12.45034967439476 32.333409960905584
180 60 0 23.357155747427154 44.53910060367357 7.777339097821589
181 60 1 28.23986231492641 46.651308801391885 3.4417615295384083
182 60 0 23.472347759439717 7.006747521748672 11.627324951610834
183 61 0 21.45092235477715 29.45344524478324 27.714121354259273
184 61 1 21.499841431987406 26.67986892924698 32.62697928482463
185 61 0 17.847221458918153 24.050494195907646 31.142454420487024
186 62 0 12.745854390746464 47.652503387856584 40.24977943549773
187 62 1 8.756661902548222 48.24729342632993 42.173277005914436
188 62 0 11.88090107202006 45.95011113589875 39.27648683580336
189 63 0 45.22697377612475 11.485156861780984 17.227536342242992
190 63 1 44.737628922166266 5.86411743643605 10.922384854112245
191 63 0 40.421561271639135 12.617079270027093 11.247862309237943
192 64 0 41.67468117560824 13.589252156898542 27.028559124111656
193 64 1 43.20275850288904 9.392695596220063 31.732164518234374
194 64 0 39.30325312560081 8.038448192699667 32.6980927099195
195 65 0 6.488938307312333 35.6664615019635 29.501764466055487
196 65 1 6.371473206356041 41.69286467039042 34.66416314999703
197 65 0 29.533224064892007 20.479142811900875 29.624219232959355
198 66 0 30.070165716286834 27.282109537871975 36.23326688110932
199 66 1 23.00034996339643 20.400916319850463 46.42297705998821
200 66 0 19.994545315122313 19.243784668597065 44.49428007306782
201 67 0 9.339912137819894 13.869101032197348 31.843612329669533
202 67 1 4.959401920904575 4.963833772076378 47.577726075002126
203 67 0 12.29612354189939 12.54004582642694 30.42152916064344
204 68 0 23.86290152878583 25.32709082774434 26.575650561400867
205 68 1 18.784916944855624 29.416771015946317 30.9077280552597
206 68 0 18.686018363480738 33.474593376644236 28.689460250647187
207 69 0 45.34681573850005 40.676688425466494 37.95966930027581
208 69 1 47.567510624106355 42.60054787071872 36.87468297696612
209 69 0 45.610698099651806 38.30003461828122 31.7616248713394
210 70 0 21.135309640858715 33.26388138913603 44.04986738374327
211 70 1 24.219122613479687 36.137082207187085 46.346265762806894
212 70 0 21.19821552049842 30.943380162139906 43.542099783300976
213 71 0 45.559933091542916 25.297448512608813 25.196932789784128
214 71 1 46.87460582606153 21.76521447299197 20.683666288902515
215 71 0 40.154851483652386 23.71130835776308 22.52596826095531
216 72 0 32.68768137893317 10.163789864791331 12.675557103829982
217 72 1 30.347425530201086 11.318570843614113 9.909788160024736
218 72 0 32.671216444599885 9.745332164797379 12.39742670496174
219 73 0 17.711627654386174 37.97782189764668 15.375522795240027
220 73 1 20.099775698015304 40.8515973688948 8.574623769605376
221 73 0 19.053503014876547 37.16727136476555 10.360357528038717
222 74 0 24.8299878796491 30.212014105842755 11.93528423234935
223 74 1 23.01709504463798 32.68208524399189 7.1696633724360925
224 74 0 24.246822165456017 27.810259371994427 12.744370309859187
225 75 0 11.771028263080186 23.2252059202119 22.188978105826838
226 75 1 7.292208339690631 20.13075198710011 21.353349044970656
227 75 0 8.658322438980422 16.52532788455088 24.165291791186725
228 76 0 23.272952954957375 37.82693912800211 13.969784202757431
229 76 1 6.918123062049701 10.857410166520973 19.542726499232952
230 76 0 30.07336674675217 32.75110449626921 12.399223577992212
231 77 0 12.862656159035332 7.13116370755499 23.766147180357198
232 77 1 11.568199572576132 2.971163491368912 24.852603237340507
233 77 0 16.850991200143927 5.497660317654459 22.510356652735183
234 78 0 5.448733470788775 10.590046983667007 5.981887762647392
235 78 1 6.00304203140644 12.662656018615383 4.597149325361056
236 78 0 5.426947962289952 18.289738477584628 5.107575999657385
237 79 0 12.633163734778398 16.442696569571165 22.405617732308496
238 79 1 9.503912313121722 11.68638963654698 22.512559603915356
239 79 0 12.48189819409454 12.494468665880689 25.60996159722966
240 80 0 42.958098176138996 26.134894097011863 34.803699226617006
241 80 1 43.96116823048647 22.292198559163587 41.62245839616157
242 80 0 42.309009027843246 26.978762907676828 41.362944048688384
243 81 0 25.741590220611464 29.759206263830563 22.976852972461305
244 81 1 25.775903012142308 9.24860046452106 35.85714791397044
245 81 0 26.147431139721807 10.584776905670923 33.699466880773976
246 82 0 38.817282827444885 2.1784892784657846 8.5642892388747
247 82 1 45.21508297047019 1.743718807084031 10.252887613625543
248 82 0 32.23419317362486 26.729639821715285 14.828482812716345
249 83 0 19.518559109830086 31.18356593503908 40.948886885250545
250 83 1 15.871470011480184 27.0400103326503 43.52528445888438
251 83 0 11.791095374437024 12.191320521308512 6.094138384445515
252 84 0 16.668250938017042 33.04358459722449 21.30517156579386
253 84 1 16.333005961335882 39.68336248891784 23.41845070384861
254 84 0 17.367852763995696 35.96323017481187 27.227271214817453
255 85 0 47.03784962792717 41.160753896594265 29.5089364024119
256 85 1 46.53235170564233 38.67759649578112 31.883963357015393
257 85 0 40.72054323667706 33.856123983882675 28.011133793901813
258 86 0 28.796637247056992 33.18633669912406 37.99952007317468
259 86 1 24.88438546876533 36.946925214818705 41.28448428233351
260 86 0 21.31056336655884 34.24669353806152 41.632520223891206
261 87 0 20.60813701769537 4.778816203739769 18.009185212100796
262 87 1 15.95394575576075 4.9857129206993855 20.1874513615854
263 87 0 13.767687087110374 9.279985206619696 18.868823779362227
264 88 0 42.093217701387395 17.698897650321538 16.46984489241182
265 88 1 44.228637420770355 19.176576254300453 13.30291296280539
266 88 0 38.74937648809147 20.178628393160643 10.99641517362023
267 89 0 41.35943158677333 30.454923431409014 41.086003764904774
268 89 1 39.502314460558935 34.87486897018367 45.89514233979133
269 89 0 35.35813787700996 36.97060639687122 44.805113309972725
270 90 0 33.591607434221494 12.739777372915324 10.607122683891895
271 90 1 40.1465238494045 7.771275341891989 11.775332127979066
272 90 0 35.18593446493503 9.616206821056904 16.237156415500756
273 91 0 18.411390287377774 9.553426528111407 7.442850575211952
274 91 1 16.53277663211409 6.898919264958585 10.092295141279822
275 91 0 16.898512161932747 27.30809227143282 29.607031765947724
276 92 0 20.428433717227573 23.658202174156166 28.63715055309456
277 92 1 9.37561924376951 33.52323554846215 32.37753699684404
278 92 0 5.488368869928056 30.610709078730476 41.076307793770496
279 93 0 17.487802876949242 10.392746172120495 13.105466903661616
280 93 1 20.983832781571934 9.641379669393745 8.628189308575346
281 93 0 24.591702748450157 12.008168042701644 14.479235327128796
282 94 0 27.171131836748238 39.46831668616764 32.985257712284294
283 94 1 25.079779587759187 42.90717888692113 36.4275370756367
284 94 0 20.44857638789958 41.61491394628382 38.347829533681654
285 95 0 14.368936972661801 15.854818030560907 41.042722170172425
286 95 1 10.215033022216295 17.341584173174983 44.37109961879218
287 95 0 16.136225495621996 16.87751657187721 39.869125547943014
288 96 0 17.670825905876278 43.702479230380206 20.74593631573886
289 96 1 15.17055460693112 42.24945185350724 23.891249533322647
290 96 0 20.138810752556935 36.53760121386664 24.525450699592607
291 97 0 28.042924507776434 6.133544000862891 11.665683887071507
292 97 1 31.578424482540413 2.4718521611107014 5.427079267137392
293 97 0 31.706709061226668 9.789867313764995 10.24465548590864
294 98 0 19.9308515058608 38.77657270325377 37.16031171257094
295 98 1 17.28143539430833 38.77954649059205 36.25000039904751
296 98 0 15.15219427147308 39.673715787709206 33.4057735651027
297 99 0 29.585806129649285 23.957062662692795 37.93724079438124
298 99 1 31.30334396049987 23.827542995082048 39.34917500142655
299 99 0 32.82565012614952 25.248248309517756 33.66698544965388
300 100 0 10.903925075642947 37.47867809637707 37.43083251746383
301 100 1 4.900768687747067 41.26418836142857 42.48664854656807
302 100 0 4.738254606430745 37.2490457271932 36.96138145487985
303 101 0 34.825989026054046 15.864997240000315 4.4587853868308445
304 101 1 40.63313808695628 10.184405920884922 3.69780285099243
305 101 0 42.999801815988945 12.40193311252902 11.568230973625711
306 102 0 28.73861701533465 22.7156602464503 41.95066365623269
307 102 1 26.50542801033347 24.644046960644143 44.09101832071794
308 102 0 26.63418354873578 28.0253578916143 42.662037752081865
309 103 0 34.9072977850037 10.413435543136902 16.114964463717662
310 103 1 41.193238732112796 4.869119285000595 17.40456909776896
311 103 0 35.31729274615984 7.490667140660791 20.404009108491227
312 104 0 33.77118099122978 7.940193557586235 12.790112861151213
313 104 1 37.758347170514874 8.369278642655178 12.025620530787506
314 104 0 32.18269122063888 12.936684484070462 13.43059359135758
315 105 0 31.96413800754165 38.721641367995566 12.340646215190416
316 105 1 36.00079805147327 38.99668990938649 11.327437587034904
317 105 0 38.462154359819 33.54806422244577 11.838672110054281
318 106 0 21.929844469487485 36.237057973529794 38.95096902517883
319 106 1 24.585493104872814 40.89700656283988 41.67049797055296
320 106 0 22.376395989036286 39.45310949582253 35.55905107550213
321 107 0 25.46381376772057 32.30123138034216 7.950739108841298
322 107 1 26.29793065590271 36.10568012447531 6.189237041157496
323 107 0 29.818979122413968 36.42206877192239 6.5767205702543725
324 108 0 23.32361309621096 19.065752602040845 19.722312031828174
325 108 1 23.253808394961293 11.665528879169198 11.410692598942681
326 108 0 17.743889566162203 19.79001088495628 19.12389246717452
327 109 0 44.22276635142934 27.171776047784704 39.47883300699633
328 109 1 44.92535611211599 24.886221570264816 42.05623644585954
329 109 0 41.09330659452332 23.973432199965877 38.495548890718624
330 110 0 18.8786192224945 32.1495004479214 4.965225280246262
331 110 1 22.883498172829793 35.77239375343836 3.5841378890955333
332 110 0 23.738440617007964 38.32570397945279 5.194019094099186
