ITEM: TIMESTEP
57
ITEM: NUMBER OF ATOMS
333
ITEM: BOX BOUNDS pp pp pp
0 50.0
0 50.0
0 50.0
ITEM: ATOMS id mol type x y z
0 0 0 27.144498330019672 25.371857846709837 32.20090021764723
1 0 1 26.994613594200015 22.95825953264029 32.95578988936716
2 0 0 26.10625595250645 26.572412211072418 35.61521408466102
3 1 0 25.652046963135607 43.4639131666279 9.737003977905259
4 1 1 26.808182359225867 43.778717520283685 6.463142110702363
5 1 0 23.380130998776607 37.15170195542599 11.757649232788129
6 2 0 40.71572848833112 26.593340878161182 37.51778861715668
7 2 1 38.39363603731081 24.36966666747916 37.78159499881179
8 2 0 33.128237535300975 25.4544294337804 32.86090615841132
9 3 0 15.346258677836266 29.19371288460216 21.29585935362174
10 3 1 14.268876034585347 34.989498793617706 23.010489810736402
11 3 0 16.408977551896506 30.42121137151636 25.735392401406568
12 4 0 33.374843344196314 20.267064146021767 27.56129730901037
13 4 1 33.962643917801394 17.889051703306674 23.588217500405168
14 4 0 34.17179253762066 14.949584483686397 25.184932386852733
15 5 0 19.13510425943249 10.717044492119763 29.87830505219122
16 5 1 15.90597768365898 4.229153397851365 40.48818694942546
17 5 0 17.132712681932233 17.125239863037812 29.812501783999924
18 6 0 40.534845468739746 40.30691347177275 3.4283798795815295
19 6 1 45.83844309858304 39.71344185394934 9.107654942756975
20 6 0 28.914884698243625 35.8501692404351 15.763890560515302
21 7 0 32.937530962870106 7.230640454704787 36.52093232738314
22 7 1 37.67275520397767 7.211506950537948 39.88712268118351
23 7 0 32.807791276066055 13.719832902339773 37.509276421601534
24 8 0 3.863259471054618 19.862471402552703 19.05759111417706
25 8 1 3.621948482479219 15.004774912819427 8.998731012151039
26 8 0 5.726468356833913 12.93069414958533 9.688305308303663
27 9 0 14.735278637706692 15.322568993271835 18.914884573635085
28 9 1 9.655342526279505 19.01224905886293 12.951205622376948
29 9 0 11.368218594625581 18.742701144301247 21.164272784091068
30 10 0 31.473544131859846 18.69131503720283 9.301739569282882
31 10 1 34.786962248601256 16.11421341071539 9.82808181260588
32 10 0 35.881768577694785 24.526625035443246 8.780837139461513
33 11 0 29.030906546585193 44.63664887494607 13.142614872391928
34 11 1 34.638474354002746 46.558159142503406 13.249921010901886
35 11 0 33.952265464607585 43.676322460837454 15.97481336951662
36 12 0 36.818586050899036 39.70053907035057 12.597775904649504
37 12 1 41.960112846811256 38.045705201546085 10.808853915168466
38 12 0 42.0102474485226 34.86924100375463 16.32323528400081
39 13 0 34.57963010156367 29.094123802616632 44.43515148550741
40 13 1 35.73490771451046 25.782932345772792 46.371764283299605
41 13 0 35.12938990400565 24.71823047490156 43.43079510029802
42 14 0 11.305781108962519 26.978983455547663 24.18252975866016
43 14 1 13.508141266466303 29.41557402913499 22.310041514191607
44 14 0 12.357191744291129 26.77732711091724 23.378119607852152
45 15 0 30.365455359670534 33.1661197512603 29.132054095702998
46 15 1 31.740318623544983 22.514360688062816 43.461147470137284
47 15 0 29.092897193211464 21.960955439157345 44.25308253003445
48 16 0 43.63255418460699 35.84477543348036 39.51846544261819
49 16 1 43.849615294042835 36.057713713340526 45.779049711377255
50 16 0 38.14250942881177 37.225850128853054 40.23030421721281
51 17 0 42.52547525315638 20.447378614498778 27.565083333773718
52 17 1 44.983303782921915 23.287005744152218 24.65230804167846
53 17 0 38.05073931897879 25.494154966474785 24.03227232832509
54 18 0 38.0394128330595 10.94059432818934 26.955455953839255
55 18 1 34.3650509915444 6.475061478239917 25.902219085423425
56 18 0 37.987734943929304 5.137252055811579 23.208560847695523
57 19 0 32.3548543562307 11.684472789150822 13.45912741253013
58 19 1 38.23382226957358 12.27815302497218 15.742085134519446
59 19 0 39.98334751798246 16.22633875055083 13.467536183144475
60 20 0 11.57272472662818 42.458013513811295 30.48011416947494
61 20 1 12.975509242042389 44.82659199170139 31.11691863894782
62 20 0 24.32067303820119 36.82406681966327 35.78375185782114
63 21 0 10.943098426373103 40.56440149599251 30.629860171281713
64 21 1 10.317543878527951 44.21261349874965 34.531189320891706
65 21 0 12.576209190108724 39.12168116350778 31.23756453536378
66 22 0 27.083891412185068 19.01518172643747 11.125767144590222
67 22 1 31.696255783910072 18.277369971673515 10.488454900618581
68 22 0 27.033737792515968 15.822342410760774 14.25194160906929
69 23 0 42.80104128810254 13.89628066155964 35.744612968694
70 23 1 46.50693614022894 11.135890426342069 33.9365768196695
71 23 0 41.21160860787322 9.306360094775602 34.48997902970103
72 24 0 35.18944027906443 29.182957429285903 39.779185522270396
73 24 1 38.79190064243429 31.39162978145036 41.65112572298819
74 24 0 35.21902520643703 32.36412560600322 36.54152541323534
75 25 0 46.79402670471172 35.392236061905365 11.639866401803253
76 25 1 45.5963728993578 35.953352667635144 12.078193377000456
77 25 0 39.867340238230746 34.321603214584364 10.321449726501225
78 26 0 20.89570324445349 15.232240760579304 26.74066469339015
79 26 1 23.55312717085951 13.751353998461424 28.560398086517385
80 26 0 27.216917075312097 12.265502669999165 28.165546187268397
81 27 0 23.36555094022216 14.790242851381722 11.098071967812299
82 27 1 26.321197042041366 10.45651822018553 9.85024428129917
83 27 0 19.672558197631993 7.822986503836516 16.444774290860092
84 28 0 12.547963207075298 29.798925336722476 31.922616444729364
85 28 1 7.910280402322626 27.496613089139704 29.15726622142317
86 28 0 14.055090912364292 25.314112802866667 26.26082798707352
87 29 0 27.667139574029786 30.474112059246078 20.724785118032067
88 29 1 31.87117846544875 35.64752222775858 15.989083964664168
89 29 0 31.71751633260517 30.566320383725557 17.083118183856126
90 30 0 48.21006313104689 18.997339204023895 40.77047340136171
91 30 1 48.06888496001634 14.47471184667524 45.245910877846775
92 30 0 47.88829170402917 18.553877051170897 43.18113264605682
93 31 0 26.36236503658157 4.211131121023838 15.18255979983389
94 31 1 29.53551626258729 3.7041975790408204 17.626756060464803
95 31 0 28.27076760858171 11.823783217004275 19.762374288653582
96 32 0 11.413065194499444 38.20023134712296 11.355127431822936
97 32 1 8.580106605653887 39.25289656256048 9.690127987067141
98 32 0 11.260625339947726 34.63770459263213 8.803252770206239
99 33 0 43.78409563902816 39.86535487313794 24.014931977924494
100 33 1 43.53834821419716 37.64535643159157 19.574555249606032
101 33 0 38.61298812124831 31.88776883055714 25.50360801864503
102 34 0 1.9059052943030252 30.216328576053662 14.018906315776674
103 34 1 1.0242507726596222 35.18308418155395 9.988914312637984
104 34 0 1.449027124849358 30.47104013689971 13.598285295907953
105 35 0 34.45280809291786 29.53909373136759 21.266564812115867
106 35 1 38.61704046314315 30.821590139433056 20.089763430019886
107 35 0 33.73293944372245 26.490684330898517 19.00148272612876
108 36 0 33.36714801912419 40.886356541472374 42.85939083472237
109 36 1 37.29474775092037 46.82793933165137 46.423403279573286
110 36 0 32.81070747702337 43.741685457792144 37.78308742974804
111 37 0 14.99933058226775 18.931723339432644 32.140469247642066
112 37 1 14.059605326720732 19.49090283313451 29.017542809787287
113 37 0 13.82889266966027 19.21269986636064 25.357647924108637
114 38 0 8.630195583369801 21.900793107652447 20.931911689554074
115 38 1 6.063523493149528 26.090982432685095 17.31037117261901
116 38 0 8.560307433167468 30.714924829124858 18.038517712642335
117 39 0 20.86830711877013 30.96474672836021 17.368642475299744
118 39 1 24.650597600557575 32.78339825118902 16.05462651893044
119 39 0 21.89650666144776 30.74333939357324 21.15724506795168
120 40 0 20.030084422333307 43.673678784797545 24.574622771501208
121 40 1 22.86588042928004 42.99768209784379 24.190443077658884
122 40 0 25.209810753856612 39.14725056914814 27.653976958611324
123 41 0 34.59985574343618 31.178068974772504 14.412079564439946
124 41 1 30.94069084290092 25.571622579844362 14.490782795697525
125 41 0 30.26698276783604 31.595720649163546 19.496368325901667
126 42 0 23.32001552550298 44.008184954569316 32.2737966638281
127 42 1 23.620774722052914 47.176718492852594 30.07695175539538
128 42 0 26.80888540587577 47.02532281082061 31.898385194232137
129 43 0 3.6319304914555115 22.24630786600861 15.03902648925265
130 43 1 5.126722339107434 20.62956328281699 14.890256555742669
131 43 0 11.02671393652043 17.583624311660476 20.068922832083572
132 44 0 10.849732377260915 20.444980431188437 37.18288219274356
133 44 1 9.467826005474674 21.24213606997248 44.13093527124374
134 44 0 8.60842223878457 25.779198038505044 44.44909476065728
135 45 0 28.709178031320683 5.785514031348108 3.4020875905836454
136 45 1 30.056125644764766 3.728949170089286 1.4906406524663554
137 45 0 29.298110200966885 9.041916156117953 1.72959279020313
138 46 0 4.424598779900222 8.618858377900162 25.418018356813285
139 46 1 3.9044939199543065 8.377585249415338 29.548901160721314
140 46 0 19.483150992926728 17.399319413400182 33.8253029010389
141 47 0 34.04238763391773 15.173991100663438 39.45523790589384
142 47 1 44.958532781388946 5.8917047381568945 38.60121769926838
143 47 0 40.46948041183884 6.366447602756174 37.64819453068124
144 48 0 5.702881271134778 20.370070408411337 7.684349536437949
145 48 1 3.9492439009886837 17.54743937278651 3.6596392157061337
146 48 0 9.597693223901231 18.10083607750131 6.237046054539927
147 49 0 19.08937004740428 24.368844514526778 34.03529195578196
148 49 1 14.995629467729858 20.35494732022012 39.367615604916054
149 49 0 20.22820867883373 24.606987166853877 40.628868884159644
150 50 0 9.006439533879472 47.271834707053294 12.599567390203216
151 50 1 7.747171294404528 46.08994288085453 13.079258465486618
152 50 0 14.704326228884325 42.14618312960958 17.495718226608926
153 51 0 23.520875581995096 31.979328969234288 13.462902262000428
154 51 1 19.279358023399965 35.48665192205015 12.398042153174096
155 51 0 16.99926546325013 33.24337285040757 12.874961810490067
156 52 0 46.02358515736283 27.63720908240345 39.24010135642134
157 52 1 46.87823133755109 31.017751503444423 42.12512064665743
158 52 0 46.9612028472694 32.70267998060165 40.68738676537626
159 53 0 12.94107814905575 21.341674025573333 11.26805822165348
160 53 1 6.508592731011643 15.943396813617069 9.394433264842084
161 53 0 8.574850515237534 13.980522373653463 12.864613376685531
162 54 0 16.714071878155707 33.269472292476024 33.49705665755332
163 54 1 15.627993796018117 31.825337025292022 30.191388106071408
164 54 0 21.083071056629176 28.916718298115917 29.58789726758491
165 55 0 6.929547170692369 32.60090218288074 20.60160143841688
166 55 1 1.433012829020137 40.31301600764446 23.048776441995084
167 55 0 7.774511896982477 33.344804480091305 23.448807199309066
168 56 0 7.567641263095124 19.196254387860026 26.243742916955924
169 56 1 5.797649261260982 13.972868673323541 23.109968660144094
170 56 0 5.553985474828248 14.320375437364564 25.707451442637126
171 57 0 19.721534972055444 21.296722140612726 33.60177784921493
172 57 1 47.28738670347629 27.925016642536107 37.824485455600076
173 57 0 21.221263404219798 20.49714696944878 29.90665678032082
174 58 0 14.74049994608486 28.148944745209945 35.51628636548125
175 58 1 17.106742588108244 26.668103807796843 41.794684514866404
176 58 0 15.234327456477306 25.544369778465626 35.61779263596554
177 59 0 10.886693152558946 3.76249689494096 12.447452690580377
178 59 1 11.930826136639958 8.097578368134634 28.593056874275582
179 59 0 15.631931986286807 12.186501758994492 32.10830332805877
180 60 0 23.6511154589013 44.66208226061875 7.51675680678745
181 60 1 28.20109200326474 46.47370752795775 3.4930991661827346
182 60 0 23.798732584934914 9.725427659834429 11.066456927218342
183 61 0 21.45357583749549 29.29167470526194 28.000329020748527
184 61 1 21.48689636266033 26.68076669243252 32.60391230435585
185 61 0 18.051745326207534 24.197853620125098 31.22534966109066
186 62 0 12.526761235759565 47.686121127666325 40.356143103668266
187 62 1 8.781370358811234 48.23716248061777 42.15646868079208
188 62 0 11.70466003064217 46.078592397409416 39.439058945268044
189 63 0 45.19618566688108 11.135856450472064 16.835162786346924
190 63 1 44.72288408348136 5.912006421260551 10.948135711165813
191 63 0 40.68829853323448 12.200224658420085 11.22822538895401
192 64 0 41.76581504788675 13.338046504441829 27.31007425221672
193 64 1 43.18382461555757 9.403778202909475 31.717866615063976
194 64 0 39.515009623753826 8.112304366990159 32.645299606023684
195 65 0 6.484271033809934 36.035698796953675 29.819524007220533
196 65 1 6.470366737208707 41.57951831486608 34.62288539527359
197 65 0 27.955545637481762 21.923417855230614 29.96689834606045
198 66 0 29.606940578006803 26.831415560186425 36.90030639260829
199 66 1 23.019439294629237 20.425265263694723 46.37503884865194
200 66 0 20.15233235645624 19.304884931944024 44.59425868920423
201 67 0 9.049041401795325 13.277026603838639 32.88932106072935
202 67 1 5.008210043225469 5.032438190732188 47.44078311463882
203 67 0 11.806064123006475 12.034450351794272 31.566908624490903
204 68 0 23.54999435342827 25.579464422489433 26.842382651852496
205 68 1 18.804102699570965 29.415136210068425 30.883363446324022
206 68 0 18.691964030868206 33.2483851094493 28.812553969686043
207 69 0 45.452565019009946 40.76882781735266 37.9076474894908
208 69 1 47.41099012229524 42.5947039580403 36.86086270439527
209 69 0 10.779899525490901 43.21736098050299 33.267790680884815
210 70 0 21.307355003212855 33.42566847152992 44.1783312613725
211 70 1 24.197019261188718 36.107520887618286 46.32771839451495
212 70 0 21.37981943746411 31.254564439446995 43.71043211173702
213 71 0 45.63687817213803 25.090022838846618 24.93206718024362
214 71 1 46.84423333695563 21.78556175505982 20.707213284929114
215 71 0 40.56383292053368 23.592984420794274 22.41399933542799
216 72 0 32.56493750523795 10.22621843281655 12.531624624855828
217 72 1 30.362675780805173 11.309659659219001 9.926962345406706
218 72 0 32.550057128084916 9.825456045050556 12.266571503275301
219 73 0 17.858482644230147 38.154632906550304 14.957356822398701
220 73 1 20.08705149151882 40.82811472939425 8.606835567634578
221 73 0 19.110226291139593 37.36620673282838 10.263121224411526
222 74 0 24.724899436308394 30.356255349096173 11.658257764618305
223 74 1 23.028373656414534 32.654459138426404 7.208298277407344
224 74 0 24.171407861714528 28.107968753743243 12.40327248402829
225 75 0 11.511405555078401 23.045530520258833 22.140707869920952
226 75 1 7.313209604058328 20.1293307960454 21.366222263559827
227 75 0 8.581960178847764 16.727784987496896 24.007593719286316
228 76 0 22.161865369314636 35.99256392468453 14.348490273438351
229 76 1 7.086076523161698 11.065106394577525 19.488663521659454
230 76 0 28.49715315939288 31.262294210562175 12.885422272643003
231 77 0 12.790849200398831 6.902210259201833 23.826153143608508
232 77 1 11.59232043153404 2.9948755995872944 24.840146047934738
233 77 0 16.53686601797122 5.3472111866246985 22.64968467895751
234 78 0 5.472507117119987 10.68216948320562 5.922112129280857
235 78 1 5.999465641283664 12.677431644902425 4.602723203023645
236 78 0 5.460378795941358 17.961148647851925 5.078098547732707
237 79 0 12.45054127334525 16.165253714001903 22.41174272807681
238 79 1 9.525523276985158 11.706512093096338 22.52276285281746
239 79 0 12.31886195178287 12.449934264117605 25.440640662319307
240 80 0 43.019883524802445 25.898151060500126 35.22411853624026
241 80 1 43.95155634287833 22.323804919706657 41.59530680169371
242 80 0 42.40245703279326 26.71368636191639 41.377611132984136
243 81 0 25.74392069045497 28.375870389143802 23.845505976559696
244 81 1 25.7766968281886 9.338789466949656 35.797178172620114
245 81 0 26.132399954609202 10.525087657681883 33.790331157863974
246 82 0 39.19973530302114 2.155052685150216 8.666079188666107
247 82 1 45.13615917870672 1.8511644887863161 10.265946342284
248 82 0 33.11347199175234 25.033427762833284 14.517569193908557
249 83 0 19.30207414322107 30.93704826357669 41.09707256382934
250 83 1 15.854124010063206 26.997174964876603 43.35279345427992
251 83 0 7.135050436347734 13.768903666951338 8.817629397862865
252 84 0 16.648002652392538 33.445374787693154 21.433253627241438
253 84 1 16.33793267509721 39.64500236228757 23.42422213429121
254 84 0 17.308112439563736 36.177859653403424 27.007320558597794
255 85 0 46.97485697413508 41.01624611322522 29.62965059869375
256 85 1 45.7183697945109 38.36185242007454 31.78476645071272
257 85 0 41.03669483452621 34.1372912187546 28.245509212470427
258 86 0 28.563175021438713 33.41025778854848 38.19533699270848
259 86 1 24.8866244777597 36.92362169495951 41.273459917169184
260 86 0 21.508217563644617 34.39554105811718 41.613058790937245
261 87 0 20.342083446661253 4.79103290809888 18.13348684457192
262 87 1 15.962794724931266 5.000177666855138 20.175017786131022
263 87 0 13.892157225346635 9.036328955873051 18.943434260428397
264 88 0 42.207905976459685 17.7783160481003 16.299635250433916
265 88 1 44.2012573784885 19.175313484323333 13.305033070764756
266 88 0 39.072770852629155 20.11941579058793 11.132700989041473
267 89 0 41.24703992428949 30.72166195724299 41.375889660445516
268 89 1 39.49479435630106 34.8655738277452 45.873234581388196
269 89 0 35.59081154784847 36.852583714325064 44.86576785565166
270 90 0 33.998198708188184 12.431455124565263 10.679916552381995
271 90 1 40.101102904231404 7.797822614732147 11.78777186570149
272 90 0 35.48411286802367 9.508572645503678 15.968256382947656
273 91 0 18.309699674053924 9.411634029863757 7.588129832971633
274 91 1 16.54066841370976 6.994309171822312 10.165986093314753
275 91 0 16.873893511963026 25.92362648046554 28.282693020564512
276 92 0 19.700426273127587 24.30719471345337 28.88441667061518
277 92 1 9.405614774075923 33.4711952349648 32.39661878987191
278 92 0 5.736441481060783 30.794365346936132 40.52373791653319
279 93 0 17.692212168420287 10.348960804211766 12.844170371894135
280 93 1 20.984808333708006 9.653125468946287 8.666783604113828
281 93 0 24.371653267312855 11.863990693892058 14.122969416870326
282 94 0 27.05037342263085 39.6658937985811 33.18338793375023
283 94 1 25.07075509894261 42.89023473968662 36.42204237365636
284 94 0 20.71373249745289 41.68845438272049 38.23759793369129
285 95 0 14.12835974615121 15.940037288729426 41.23535858043838
286 95 1 10.252676459130134 17.33445343913526 44.34186837487502
287 95 0 15.774523825000584 16.90629101195569 40.144197929284964
288 96 0 17.534962599492307 43.62312626557801 20.917165565158157
289 96 1 15.19815924833767 42.23233942896332 23.8829630633159
290 96 0 19.834174791460327 36.88812589285355 24.486325819692347
291 97 0 28.261366253559164 5.907649910825205 11.28046449930101
292 97 1 31.5652856910219 2.514534132605772 5.46995168707115
293 97 0 31.698485126919813 9.332859198593482 9.943971566975298
294 98 0 19.808747234755664 38.77731671453366 37.11691983972099
295 98 1 17.282118507827263 38.78238047367108 36.24351947370403
296 98 0 15.263366710975632 39.62762667633526 33.55286115246403
297 99 0 29.652679384234045 23.951362286402713 37.99518424681765
298 99 1 31.30477031028601 23.8331450323547 39.32456679521371
299 99 0 32.735951653513325 25.164334908347204 34.00270577636085
300 100 0 10.528995942346182 37.714876893264254 37.746284112808176
301 100 1 4.923574447623675 41.234308561707195 42.446129764789184
302 100 0 4.7482889019696914 37.490920688186186 37.29423443038072
303 101 0 35.18605831071089 15.513228376782383 4.412418474665964
304 101 1 40.619886608180764 10.214991376226418 3.7313447809057227
305 101 0 42.85175795947249 12.26433642373637 11.077921294201698
306 102 0 28.623079177893864 22.815566102722865 42.06133534665927
307 102 1 26.51305918514841 24.64877224381928 44.079473866651725
308 102 0 26.627597508786145 27.849868112593136 42.73607823990261
309 103 0 35.29940117641842 10.064966042277055 16.19454850341889
310 103 1 41.14655182579372 4.900596149063353 17.41091597870179
311 103 0 35.673410487887296 7.3318526711791865 20.222114728226067
312 104 0 33.98477298985272 7.962442826636654 12.749114950317956
313 104 1 37.72502681257791 8.384974563292053 12.033404447215352
314 104 0 32.522924283176536 12.658129642733027 13.344876863929528
315 105 0 32.18261977066313 38.736023494450436 12.285912766498901
316 105 1 35.99632101179518 38.97579836244052 11.332902016992703
317 105 0 38.31658204348123 33.86947725298461 11.808609680089653
318 106 0 22.086297181902015 36.51154037945796 39.11127317772755
319 106 1 24.56742669468085 40.87443826407411 41.63755612383178
320 106 0 22.508994842809972 39.53980792561023 35.925836995867186
321 107 0 25.509437560189276 32.50842542864885 7.854838071261937
322 107 1 26.306372911046406 36.093756830834636 6.196470266226352
323 107 0 29.63839609002014 36.40567425558514 6.556931273771137
324 108 0 23.318670456718106 18.591903011649013 19.18998464712903
325 108 1 23.231800921484346 11.728010604643972 11.475159542247841
326 108 0 18.1009258333531 19.26421957910756 18.624832156034593
327 109 0 44.25920445305535 27.055872000449316 39.61044243794207
328 109 1 44.90922338870333 24.889958645419235 42.03516853826734
329 109 0 41.313554999887316 24.0256319391663 38.70039105444189
330 110 0 19.111478431680972 32.360421014188226 4.885211820184512
331 110 1 22.871590433446983 35.76701964851582 3.594008653573228
332 110 0 23.696039402053984 38.20079602300192 5.116010350369049
