ITEM: TIMESTEP
6
ITEM: NUMBER OF ATOMS
66
ITEM: BOX BOUNDS pp pp pp
0 50.0
0 50.0
0 50.0
ITEM: ATOMS id mol type x y z
0 0 0 27.40363921010588 33.38958954283442 30.505949620601857
1 0 1 27.189582176386303 21.578267586087684 32.44031577178166
2 0 0 22.78987936765293 40.629809116236 45.48501274603703
3 1 0 20.708139765918503 40.67386757249927 22.614618033758756
4 1 1 28.04694719755784 45.72296874584281 4.201397003959269
5 1 0 8.505754675246179 8.832549554970752 35.06798543497649
6 2 0 39.05243578066531 40.07412642350945 47.23552658797913
7 2 1 39.58299265798038 23.382844664417323 38.78936959966949
8 2 0 11.768925029111127 30.48054238491818 12.65723671555733
9 3 0 41.43602605895233 28.21320150526306 21.095227290679734
10 3 1 13.750988999346308 38.17506422041175 22.871515110479738
11 3 0 25.848430073593406 7.405092373965504 29.49508307589406
12 4 0 31.19700315186461 28.649045751292427 42.89911518447685
13 4 1 34.062427656922026 17.956153965446294 22.237795480222225
14 4 0 34.74668305769336 5.516331383735564 31.447604157227964
15 5 0 30.521857249363777 11.850430014445045 10.170690192695009
16 5 1 16.024434238885778 18.437129937846557 28.02772873948813
17 5 0 20.891918658103904 44.06135850398513 9.091013698408348
18 6 0 10.814743651779875 10.62530562774587 29.22260671998131
19 6 1 12.59154673711647 22.96799025168244 12.65274745625505
20 6 0 8.7454031876065 8.519804735019088 29.345962886583045
21 7 0 12.729299797244645 9.018356419976088 22.44206521321818
22 7 1 40.29665562386317 5.380167293396064 41.44891858894082
23 7 0 11.033135407079293 41.23249289244047 26.59963209310574
24 8 0 40.755099792779724 27.45418234031144 31.62738182869448
25 8 1 2.595323837895666 14.228456027269884 6.444262228759893
26 8 0 12.715960764407205 7.314342107282123 14.28482327490039
27 9 0 21.94406437559843 4.875677189100398 33.25093930349992
28 9 1 28.001426112581115 13.331403682582174 26.46432365247168
29 9 0 8.724670709588116 26.13729827592121 43.00650136895401
30 10 0 19.292503942263508 30.1550783066269 7.055696296338079
31 10 1 35.53793375703157 14.526428750675171 9.475305862493688
32 10 0 30.415754057491295 3.3234048246048675 35.92876668138156
33 11 0 6.4825188610659 36.308527407168896 13.333639017847547
34 11 1 36.28741311002417 47.76370008160412 12.61885371174507
35 11 0 30.117463028795367 32.71657285109794 25.879929114161552
36 12 0 16.471759649222424 45.46177413738088 21.106480796705636
37 12 1 41.97249218303732 34.94784766574228 15.260361319891887
38 12 0 40.9380259719349 22.419438509598837 39.08802722837432
39 13 0 30.273660960066316 40.87649961655333 36.832385358022506
40 13 1 36.145290418687956 25.225539236501415 47.48525561446017
41 13 0 32.868881914657784 21.854278040934247 33.216261895938835
42 14 0 3.2341232061983565 17.729592935337116 31.066102521402843
43 14 1 14.281979684984393 30.569438595878832 21.63272611426608
44 14 0 8.049944261930749 17.56421690567034 27.331913870085806
45 15 0 30.033104555975605 27.545592883608325 34.653686405630324
46 15 1 32.42915192718314 21.64596540803949 44.70102583138046
47 15 0 20.704342590394162 21.762979154043038 44.62352327991767
48 16 0 41.245847649477874 35.29074419173215 12.691173695914152
49 16 1 45.50053465067333 35.7890861792989 49.013894253810015
50 16 0 14.113037296607281 42.07768404744538 15.299808997322552
51 17 0 32.37690047450312 9.991166125499667 38.646476846020704
52 17 1 39.871982260197015 28.287467198421204 20.617243128163782
53 17 0 9.763033040444377 33.75268110510862 22.30151944312063
54 18 0 37.249876193202894 35.95970551107314 43.47777667585605
55 18 1 42.6550717955108 1.1244021576268315 18.409971368659622
56 18 0 37.513868917242064 7.322455746795039 24.773014294157722
57 19 0 9.05954778029442 10.227649462153137 3.7121427732584404
58 19 1 39.362011082804635 11.437110846378609 16.92798983700616
59 19 0 45.227854069821454 31.13917608086867 4.238961303161563
60 20 0 8.852163491932517 33.63984948811915 29.169874363990502
61 20 1 12.01290853210407 46.370100253894215 30.740249217335066
62 20 0 24.27186808660488 32.38004209907277 35.5266273595036
63 21 0 14.535534956220332 24.550873077099315 15.002291552129993
64 21 1 9.539004232799234 46.54517043188591 36.43661205724141
65 21 0 21.914217728192572 17.50591717149706 16.862196613709298
