ITEM: TIMESTEP
81
ITEM: NUMBER OF ATOMS
33
ITEM: BOX BOUNDS pp pp pp
0 50.0
0 50.0
0 50.0
ITEM: ATOMS id mol type x y z
0 0 0 27.123114439077636 23.949783354198495 32.424715443359815
1 0 1 26.961002735921074 23.215498591286522 33.05189235098896
2 0 0 26.72665716502214 23.87487367303516 33.78298156925571
3 1 0 26.400313920263848 43.82468758569495 7.739784182203488
4 1 1 26.5854580495646 43.418981034669955 6.862300253337022
5 1 0 26.19715229850975 42.546504178720674 7.367653463828344
6 2 0 38.22561477570335 25.44349258721414 38.4402639573148
7 2 1 38.04001690884123 24.653415532768435 37.81345061865349
8 2 0 37.28297642004076 24.782052225861253 37.067315201726494
9 3 0 16.90839798256088 35.965091514104884 22.969748056709406
10 3 1 15.900380681175237 35.96762457372865 23.135311038281703
11 3 0 15.984667991642057 34.9719471489532 23.40031051448248
12 4 0 33.811015838703554 18.474482351359768 24.651635462567924
13 4 1 33.94421821682557 17.878203404087188 23.83309592770502
14 4 0 34.024427100933764 16.938472249447376 24.170870291173394
15 5 0 17.664084764247264 18.90919875712884 25.44245568706621
16 5 1 17.065217309486613 19.4748626098839 26.043616471510514
17 5 0 17.09783545411475 20.39988455187331 25.566485939001865
18 6 0 12.588226868741422 21.249140931623245 15.333729023926939
19 6 1 12.290020585244834 21.5378235841304 14.426218987374487
20 6 0 11.797564003386112 20.77866009116802 14.859001175711285
21 7 0 36.44535890550231 7.216457902501869 39.01467411423142
22 7 1 37.20880762692813 7.540380039155962 39.6116772272674
23 7 0 36.72436222141804 8.472060787192857 39.421996447586814
24 8 0 6.054293379174295 15.023462164543263 8.771929229409649
25 8 1 5.219642559939982 14.607511434948986 8.235227469612553
26 8 0 5.427245892133991 13.680053772033371 8.48361989888636
27 9 0 26.445124959405916 12.669528963455324 28.0154596582192
28 9 1 26.64135359430505 13.592223988834776 27.713207926739127
29 9 0 25.98383629372317 14.169761715993497 28.2595609010523
30 10 0 33.72294624083671 15.498512264212406 10.510966317445218
31 10 1 34.39390980520598 14.756825792784602 10.77321334568051
32 10 0 34.28976765471409 14.293805691160092 11.707966599315622
