ITEM: TIMESTEP
84
ITEM: NUMBER OF ATOMS
66
ITEM: BOX BOUNDS pp pp pp
0 50.0
0 50.0
0 50.0
ITEM: ATOMS id mol type x y z
0 0 0 27.14587553789828 23.851077256303867 32.357213072479134
1 0 1 26.959620514546593 23.22994001556665 33.05508406217419
2 0 0 26.725843685721767 23.741349367938977 33.79932055848203
3 1 0 26.466209330308196 43.96470354826867 7.647913832178333
4 1 1 26.576115007444834 43.40634779995744 6.88104644653662
5 1 0 26.280928018279635 42.607637134150984 7.160274504182498
6 2 0 38.17616445133107 25.396844295456358 38.36090680996745
7 2 1 38.03704635663103 24.65511351562666 37.81023499418143
8 2 0 37.38899049126543 24.803848164297122 37.19241061974071
9 3 0 17.022393825533776 34.61464592749647 24.541700806419783
10 3 1 16.21902382856373 34.78024786785468 24.138047622441732
11 3 0 15.929121158623039 33.88753312979153 24.011869943318263
12 4 0 33.82169813972701 18.43617566799002 24.572077748952918
13 4 1 33.943710420127275 17.877463454312995 23.84024190397822
14 4 0 34.021545217549644 16.988321717503638 24.135482588607026
15 5 0 17.607033584532793 18.92074348403106 25.519252142194922
16 5 1 17.070616370013504 19.479515095622627 26.033502575697735
17 5 0 17.067831431171015 20.312845712468285 25.650094587897033
18 6 0 12.773513116115355 21.467658352205152 15.275980934943394
19 6 1 12.28681846349323 21.52219315036918 14.44586320010593
20 6 0 11.662282693398904 20.810206730446485 14.602707084587946
21 7 0 36.57098688267796 7.086052172078928 39.082356280614235
22 7 1 37.18971898181741 7.552572570502392 39.60012139266448
23 7 0 36.903732865078474 8.408675672684955 39.53905620368143
24 8 0 5.902360367647342 15.03327510903303 8.664749413369595
25 8 1 5.2343109309114535 14.606942335985666 8.245588893332371
26 8 0 5.344895041183495 13.679441510287827 8.426214184628659
27 9 0 26.479524423629563 12.696191620442324 27.979652623906507
28 9 1 26.634401056228718 13.59228606503445 27.719751879497046
29 9 0 26.061385128430842 14.14041546938969 28.19019084212499
30 10 0 33.767094316485796 15.416606064453058 10.583987600487635
31 10 1 34.39288436004686 14.7565932708435 10.774994421139297
32 10 0 34.26149485560391 14.3795664015194 11.604835208506504
33 11 0 33.43803960247717 46.206231459091505 13.165482153655313
34 11 1 34.3269320420486 46.33151645774969 13.367981626370353
35 11 0 34.52968704924039 45.73382399474908 14.062047785022544
36 12 0 25.01529376627922 48.23119217639483 37.08439702336658
37 12 1 25.344591386664902 47.68791781329916 37.792578943485296
38 12 0 25.230933086251376 46.85624637768596 37.47555955178656
39 13 0 35.42194020462797 26.75953396070948 45.90174742773794
40 13 1 35.65571312453557 25.890574023677804 46.1567093317522
41 13 0 35.554802780587046 25.33169487534692 45.404299500858656
42 14 0 12.599996446894972 29.151704061004686 23.031131668714124
43 14 1 13.350418052329712 29.188541215482427 22.44511230610497
44 14 0 13.561484087820139 28.256614346623746 22.342394225832667
45 15 0 31.75401594011805 22.436893611631014 43.35766120985416
46 15 1 31.691884552311393 21.96035043553695 44.17184197117509
47 15 0 30.778629353477008 21.84049444193011 44.38606694034121
48 16 0 44.078820065239206 37.11843684966904 44.59433917933678
49 16 1 43.606016937716184 36.74792838822185 45.30448307737504
50 16 0 42.76066619965136 36.700114660790945 44.96862689004046
51 17 0 24.00151030372372 39.09171157573617 42.993792834845436
52 17 1 23.61756501220194 39.920989470852575 42.9608269035329
53 17 0 23.053840905007643 39.949628435008286 42.22929024103502
54 18 0 39.95357424763821 4.383750891471472 18.409119377476475
55 18 1 40.542728174629794 3.7709176467567733 18.609289221561287
56 18 0 40.6408658201112 3.7129051660210997 19.55564334183089
57 19 0 37.176057716385834 12.313324089747292 15.220046872162111
58 19 1 38.02965959676732 12.429894371429265 15.527718394125866
59 19 0 38.429442615297326 13.168702741680434 15.13593540160465
60 20 0 11.902686843609784 44.270290055419984 30.651048943611933
61 20 1 12.509318718452851 44.94712801078258 30.91596399263156
62 20 0 13.282691289437814 44.51936603401909 31.22748404060717
63 21 0 10.11923539931656 43.537930393515325 33.35398465333185
64 21 1 10.49096389561406 43.75979052842178 34.20567850810431
65 21 0 11.12244161112328 43.06193352073565 34.238109445100896
