ITEM: TIMESTEP
88
ITEM: NUMBER OF ATOMS
33
ITEM: BOX BOUNDS pp pp pp
0 50.0
0 50.0
0 50.0
ITEM: ATOMS id mol type x y z
0 0 0 27.186935616795523 23.77950588680145 32.22466307362282
1 0 1 26.96071197281061 23.236992047453423 33.0506865551704
2 0 0 26.66741811766759 23.701464559339012 34.00248081430236
3 1 0 26.55138691012667 44.18450048174893 7.55895253471923
4 1 1 26.57391543217011 43.41757847155172 6.896326149459212
5 1 0 26.230763687960717 42.20913588098709 7.0040664662850345
6 2 0 38.135785332957994 25.56394430949943 38.40855665552273
7 2 1 38.05261842089512 24.635782326537782 37.81749639438146
8 2 0 37.17129026236445 24.943769999940518 37.03435304471305
9 3 0 16.95112821654384 36.29368130234744 22.87065727695768
10 3 1 15.91863618077634 35.95239823198048 23.136565626137237
11 3 0 15.649843970543259 34.88701018897831 23.479331806713414
12 4 0 33.79787998948618 18.54875901732251 24.710316988329094
13 4 1 33.9445637198241 17.877855290504034 23.82960297762355
14 4 0 34.03248710085831 16.869972394092287 24.16783908811661
15 5 0 17.704305707076124 18.77776135055771 25.44552200567558
16 5 1 17.066268490211797 19.47369193057378 26.042629918561335
17 5 0 17.040617281495745 20.55008514749295 25.579217495764656
18 6 0 13.046583329154934 21.882470464342514 15.045409403885456
19 6 1 12.281109412896361 21.48736972620283 14.491434557297456
20 6 0 11.481826168378797 20.952675898804692 14.103858686294316
21 7 0 36.60059183469721 6.773307308998159 39.05140263239449
22 7 1 37.17951347833181 7.549923949235277 39.59242529621214
23 7 0 37.03784862191545 8.762482269482426 39.69331857302204
24 8 0 6.119957862091655 15.301179669815744 8.786847504802905
25 8 1 5.2256082046603956 14.59612918128629 8.240661920679516
26 8 0 5.266046363491857 13.584371047075583 8.381674947907115
27 9 0 26.486834419978184 12.595458964014723 27.985559311158728
28 9 1 26.641476790045797 13.589087697878282 27.713478780099113
29 9 0 25.939868788670214 14.293530375354967 28.285269947305352
30 10 0 33.60661418850823 15.525684270803426 10.636619229941832
31 10 1 34.409955588969574 14.751433544551283 10.758651588640927
32 10 0 34.14937690863294 14.352894690064348 11.815235293255602
