ITEM: TIMESTEP
89
ITEM: NUMBER OF ATOMS
66
ITEM: BOX BOUNDS pp pp pp
0 50.0
0 50.0
0 50.0
ITEM: ATOMS id mol type x y z
0 0 0 27.187649822121216 23.779862417680647 32.22216458420615
1 0 1 26.960740014077576 23.236798987241674 33.05054979330688
2 0 0 26.66603663162768 23.703037512772863 34.006966230618005
3 1 0 26.55336197154436 44.19062146242389 7.557802462240796
4 1 1 26.573977494905655 43.417829668902336 6.896399390806987
5 1 0 26.22778255654943 42.197940100005475 7.004568345829199
6 2 0 38.13380318063117 25.570862804731288 38.40925094307095
7 2 1 38.053752505396865 24.635184471640933 37.817355818505035
8 2 0 37.164736635284314 24.948750142818007 37.02907272715626
9 3 0 17.25974298167725 35.099626730785666 24.65003495275753
10 3 1 16.230495001082513 34.74150253373379 24.144566081967938
11 3 0 15.51031696542823 34.02641755349216 23.80037468476328
12 4 0 33.79703058466734 18.55282469730545 24.714855079431167
13 4 1 33.94456760571615 17.877871101471655 23.8292199246166
14 4 0 34.032886912831124 16.865498767393888 24.168983005798225
15 5 0 17.70770643062387 18.772019993807746 25.443124342848705
16 5 1 17.06611264467237 19.47345319200298 26.04280893248009
17 5 0 17.039094939990747 20.558399529875896 25.577399381879502
18 6 0 13.051237665008683 21.882578678968912 15.052607867984056
19 6 1 12.281128661459277 21.487779183747957 14.490920069038252
20 6 0 11.475617253545138 20.945866631025982 14.105016905761019
21 7 0 36.60033076015728 6.764411095719047 39.04973602857771
22 7 1 37.17943274095668 7.5498720322824395 39.59235524070161
23 7 0 37.03898975967805 8.773471915619115 39.69595292585727
24 8 0 6.126522358285924 15.30993173301803 8.79050615443788
25 8 1 5.225396532862007 14.595843300094261 8.2405969047609
26 8 0 5.263271477924107 13.580280542321727 8.380246414753351
27 9 0 26.486963782945622 12.59139985334351 27.985960565627728
28 9 1 26.641750379305495 13.588909630633635 27.713240831642704
29 9 0 25.936035330732167 14.298712863470776 28.28821922913527
30 10 0 33.600594600523316 15.529412690161575 10.639073660810588
31 10 1 34.410382132734505 14.751351558075193 10.757744057768457
32 10 0 34.145122028361406 14.352483578476956 11.82189236147045
33 11 0 33.221226518831784 46.2648196659022 13.023870850123568
34 11 1 34.331250585079125 46.3309386813146 13.370202874212499
35 11 0 34.67760322868547 45.68455768429002 14.168278936286736
36 12 0 25.05304462244919 48.5001751392797 37.18918202442647
37 12 1 25.33707731143258 47.6972645511403 37.77616529307267
38 12 0 25.313546323002374 46.43813737110298 37.63315183207725
39 13 0 35.39759419350008 26.92244804880851 45.92485898464845
40 13 1 35.657019477749 25.88828546032143 46.158768976654294
41 13 0 35.56337038395065 25.210747776279113 45.35167923691243
42 14 0 12.55634767090126 29.521620994962294 23.040768928100615
43 14 1 13.335769725422637 29.159142649224677 22.45824088103019
44 14 0 13.837381284035668 28.353394835116926 22.121546802049455
45 15 0 31.788605180051274 22.482701544924154 43.278922028907076
46 15 1 31.69447472564199 21.958756402356606 44.173831275219705
47 15 0 30.696922878554485 21.814754635203265 44.43080114139269
48 16 0 44.43631285286895 37.17045072902703 44.65331710940957
49 16 1 43.60501426718541 36.754057676842166 45.287936991609016
50 16 0 42.419275744904276 36.550108296800396 45.1744005425182
51 17 0 24.14344791564959 38.860644436773164 43.049365162890574
52 17 1 23.617990045253332 39.93170698177099 42.96758674171029
53 17 0 22.90502460376928 40.008830640984634 42.065855701921016
54 18 0 39.623768765763586 4.7275826931809375 18.313241476301812
55 18 1 40.5629729089729 3.7495730961422664 18.610642621286594
56 18 0 40.64690932288977 3.710106232668023 19.63002562928896
57 19 0 36.93721155888228 12.330909106991433 15.094673121046474
58 19 1 38.042458007376574 12.418035886176918 15.543038907196044
59 19 0 38.46639719207596 13.339316872015887 15.019602226883539
60 20 0 11.78118527757353 44.27329941244535 30.59916798797632
61 20 1 12.508719382102674 44.946436727586686 30.91261805500187
62 20 0 13.43920116790201 44.542452693558594 31.291822039021433
63 21 0 9.757995273554043 44.032643664322585 33.46165926297776
64 21 1 10.500230117603378 43.71443785852591 34.16616884678583
65 21 0 11.309881564305401 43.27793441988829 34.803706956744485
