ITEM: TIMESTEP
9
ITEM: NUMBER OF ATOMS
33
ITEM: BOX BOUNDS pp pp pp
0 50.0
0 50.0
0 50.0
ITEM: ATOMS id mol type x y z
0 0 0 27.384448903041484 32.3884091174496 30.673468848082056
1 0 1 27.16636249210729 21.746489982496964 32.50228632808365
2 0 0 23.180711446959613 38.94057825221722 44.32607670525678
3 1 0 21.350787759129318 41.11038846066422 20.997688122638912
4 1 1 27.895876231336697 45.48627063008377 4.47746272248097
5 1 0 10.280013909957718 12.184164468268154 32.26716367081032
6 2 0 39.09232093428777 38.60956500147975 46.487211057906
7 2 1 39.42348926816843 23.514190481282444 38.68851680590146
8 2 0 14.280694463077031 29.843572796184624 15.019302089218511
9 3 0 38.959171955180125 29.097930776110264 21.256056472693192
10 3 1 13.973314447630653 37.946905005743865 22.89875746902624
11 3 0 24.76695417050448 10.170614341350433 28.898857940019724
12 4 0 31.451661975462578 27.696575602046252 41.0665095388135
13 4 1 34.05029081452574 17.94801863719197 22.402062155975063
14 4 0 34.68654544374504 6.599300446872585 30.652574821957174
15 5 0 29.23462088786269 12.442090375949208 11.753158028659074
16 5 1 16.132039582879056 18.544189389131425 27.822860666772467
17 5 0 20.458147116709863 41.75776734698726 10.787862188531017
18 6 0 10.970794324620229 11.71166344617822 27.76356956756641
19 6 1 12.560601612196804 22.820252879238627 12.836132450221362
20 6 0 9.085699479272368 9.797246503136797 27.870546628141025
21 7 0 15.201755375353088 8.700089148969912 24.14804157089095
22 7 1 39.97657129436451 5.60331141357959 41.2583611884054
23 7 0 13.682450464226417 37.97916112389548 27.942727875823643
24 8 0 37.295185697512224 26.252495887943454 29.34433903660657
25 8 1 2.8656537413430905 14.266009467877407 6.628866334880728
26 8 0 11.850181909837923 7.915074064933202 13.6129990275257
27 9 0 22.456967687621805 5.600931679521449 32.675029221388805
28 9 1 27.861615764768466 13.357912648093496 26.592751172168686
29 9 0 10.448006935485267 24.989562838024142 41.52805303860309
30 10 0 20.731884120262404 28.76639569652752 7.276694527651781
31 10 1 35.419554457856904 14.550291377250979 9.609653259139082
32 10 0 30.87051346992011 4.330475875706571 33.559210181221665
