ITEM: TIMESTEP
95
ITEM: NUMBER OF ATOMS
33
ITEM: BOX BOUNDS pp pp pp
0 50.0
0 50.0
0 50.0
ITEM: ATOMS id mol type x y z
0 0 0 27.151802072583177 23.799198737465563 32.342341652369264
1 0 1 26.959279624686875 23.23653514669118 33.055603137131506
2 0 0 26.725286707497823 23.689625679412877 33.80653828533083
3 1 0 26.454817228203893 43.91596108736052 7.644691305888032
4 1 1 26.576940330259752 43.40786305842746 6.8795985410152225
5 1 0 26.278941517384137 42.63313123533934 7.185958205938332
6 2 0 38.14339933677344 25.343316747074187 38.297559719987255
7 2 1 38.03512460115099 24.655723690448056 37.80941054764408
8 2 0 37.44386023258952 24.84543521789498 37.274887503230254
9 3 0 16.77238432361254 36.088978047877106 22.957481681717773
10 3 1 15.917312433381877 35.95113562010851 23.137139498076866
11 3 0 15.849752723728894 35.111996949774536 23.383335649222943
12 4 0 33.8287989562908 18.40825836236271 24.52363197626692
13 4 1 33.94356334291017 17.876409612326484 23.84511412931697
14 4 0 34.0187519729545 17.034143038680394 24.105728655536105
15 5 0 17.560708867482987 18.94088302591404 25.576874187564634
16 5 1 17.074285351703775 19.4820895965348 26.027121726534787
17 5 0 17.055479908636848 20.25268496819493 25.69603064429752
18 6 0 12.482036594175145 21.039598403119395 15.49859054262308
19 6 1 12.293816587527607 21.558362249998932 14.399955743588393
20 6 0 11.843161901184677 20.65988547180166 15.114304632948311
21 7 0 36.55321032199383 7.16016499257138 39.08203836267056
22 7 1 37.19384052820803 7.550156018455121 39.60265872997328
23 7 0 36.85603108632061 8.371842280730101 39.49899936606743
24 8 0 5.842671100459622 15.029489161029657 8.623421909509338
25 8 1 5.241273456746634 14.604466454466188 8.250672040292775
26 8 0 5.292468274114248 13.722453404796706 8.384741839373579
27 9 0 26.510156146025672 12.733189218560058 27.946062496378854
28 9 1 26.629772404014535 13.591098818788925 27.724225590828535
29 9 0 26.103070004680433 14.122366858274743 28.15318871225759
30 10 0 33.80233675315138 15.356409007395428 10.63368347799007
31 10 1 34.39237283578482 14.756563881993944 10.775904398274447
32 10 0 34.235003773021404 14.44004557448373 11.541952878889441
