ITEM: TIMESTEP
96
ITEM: NUMBER OF ATOMS
33
ITEM: BOX BOUNDS pp pp pp
0 50.0
0 50.0
0 50.0
ITEM: ATOMS id mol type x y z
0 0 0 27.160038113148246 23.80227452816583 32.3139694589324
1 0 1 26.959777596209182 23.235337560065194 33.054026899135515
2 0 0 26.709046729221498 23.705819631480043 33.86021029774064
3 1 0 26.46458878341381 43.9519409703065 7.642838253023048
4 1 1 26.57795072696667 43.412248713012865 6.879922299154838
5 1 0 26.25300491400884 42.52698274296865 7.1826288911465355
6 2 0 38.14639951940393 25.411528974843804 38.33764568571635
7 2 1 38.04059651055341 24.64879395522435 37.811559550917515
8 2 0 37.35336589346646 24.888118587036658 37.20045017696623
9 3 0 16.832616483123893 36.12112041592849 22.938542855408766
10 3 1 15.9153389811471 35.95365816495461 23.136758801416587
11 3 0 15.821092790352617 35.03951015435858 23.408367656027032
12 4 0 33.81882061467434 18.451323949946158 24.58720560906821
13 4 1 33.94392016138885 17.877080354606587 23.839865084149636
14 4 0 34.023256001175156 16.980453037462016 24.12601675446314
15 5 0 17.608046204701836 18.890671502888022 25.531913225526374
16 5 1 17.071264646468727 19.479355110890484 26.032744031637332
17 5 0 17.056381260613552 20.34666504448629 25.65104152448345
18 6 0 12.443287464502804 21.0611631575041 15.405599040542267
19 6 1 12.292754504239184 21.552206277209212 14.40795148457315
20 6 0 11.898925064994296 20.736859721115138 15.079357524984069
21 7 0 36.53794098285892 7.103106938511949 39.06168560606234
22 7 1 37.19465038534394 7.547702560623741 39.602827275359914
23 7 0 36.858349439156314 8.468141867346393 39.5166656548836
24 8 0 5.939894389617887 15.098605277425278 8.683635842967991
25 8 1 5.235548657885972 14.602778573219796 8.246860169470631
26 8 0 5.286797748214905 13.680301165022422 8.385478623300042
27 9 0 26.50355429143142 12.687879129843601 27.95804650522084
28 9 1 26.633675795793874 13.590721158068062 27.720587875380286
29 9 0 26.04706864334524 14.173469275980867 28.199482084161755
30 10 0 33.73960968712849 15.41241591315169 10.631661454142664
31 10 1 34.3981471091426 14.754770412457356 10.77041521493758
32 10 0 34.20534752407964 14.412726410858985 11.631767305992073
