ITEM: TIMESTEP
99
ITEM: NUMBER OF ATOMS
333
ITEM: BOX BOUNDS pp pp pp
0 50.0
0 50.0
0 50.0
ITEM: ATOMS id mol type x y z
0 0 0 27.09449462693531 24.17997071896164 32.492105905410796
1 0 1 26.963222005533623 23.176581512742544 33.041063960582505
2 0 0 26.663541824209574 24.264420192251702 33.951313298464434
3 1 0 26.27618352616777 43.648222292163354 7.977685338652625
4 1 1 26.613723211608203 43.47022506774651 6.809919335043447
5 1 0 25.841318358100292 41.927148416795774 7.9657985314840545
6 2 0 39.27561573317841 25.33011819998326 37.578145312100425
7 2 1 38.25050287408657 24.495424092859732 37.56442627127691
8 2 0 36.89535922135831 24.78804343340208 36.378691320113965
9 3 0 14.63935919237656 33.05217618485866 22.471100714239288
10 3 1 14.400878228680947 34.562345196974796 23.050458882431712
11 3 0 15.002518623518483 33.39672216099492 23.921034131216555
12 4 0 33.75599202201643 18.699259064642657 25.022165392552168
13 4 1 33.94681418335786 17.87882509456223 23.802015038614627
14 4 0 34.04391436332373 16.681024421295703 24.303314590293553
15 5 0 16.773003212324397 6.199370762622047 37.494040754176034
16 5 1 16.107158360372708 5.1143763324733165 39.52075131228886
17 5 0 16.275895876621515 7.47933890937039 37.67576343186824
18 6 0 43.88864112434428 39.80046588619677 7.598198559026839
19 6 1 44.83543245657448 39.586435689431866 9.186770687451961
20 6 0 41.986074054576584 39.40965176247294 10.786397471863317
21 7 0 36.01456179430008 7.303840395460743 38.722606593046244
22 7 1 37.26800768019875 7.497247957529607 39.64671833533685
23 7 0 36.20654666291522 9.074758396883418 39.15413039889664
24 8 0 3.724498113203214 16.2248496265586 11.61917808195544
25 8 1 3.704994464915789 15.154390416921974 9.477702142061194
26 8 0 4.54607435163823 14.17725985886903 9.464751035668913
27 9 0 11.151042271782972 17.941184629423763 14.804293072740457
28 9 1 9.95022070240359 18.840237922896208 13.565352359987353
29 9 0 10.235511412163095 18.8763102543324 15.448704722631108
30 10 0 28.743493319020903 15.664742114846565 11.866675542774999
31 10 1 33.62075301766418 16.395249337346325 10.235708956769562
32 10 0 34.452759161367325 18.391975759442662 9.788081087699288
33 11 0 32.81177234225825 45.905339990829056 13.2427721347526
34 11 1 34.37882794066246 46.37032175502293 13.347237658927613
35 11 0 34.3257435658792 45.413132061562656 14.317619772547367
36 12 0 40.05380727811846 37.760754335065855 11.166862591639335
37 12 1 41.742067309313036 37.964519099951175 11.104565282987007
38 12 0 41.88571805167483 37.083822648482496 12.565626639257296
39 13 0 35.28595260729853 27.06292129741096 45.614502716154554
40 13 1 35.66962320842861 25.872391223033326 46.195126153842025
41 13 0 35.467863099520336 25.318239142487087 45.07800973162128
42 14 0 12.537651884429605 28.509646175425992 23.124166972343847
43 14 1 13.385471823312638 29.23711776994832 22.417135703992447
44 14 0 13.088700830751847 28.10150152953088 22.722409686856537
45 15 0 31.364202558361644 24.946119950832376 40.11667415768131
46 15 1 31.58638741698108 22.993056453944572 42.81838653098312
47 15 0 30.55704806273998 22.47844410560984 43.5300588685291
48 16 0 43.70866034420198 36.00228274303877 43.660171165888016
49 16 1 43.593090672996794 36.09969113880944 45.28062847673374
50 16 0 42.17249495192396 36.397441772607245 44.063297334262174
51 17 0 44.00315483385235 22.305494029138927 25.68370093355186
52 17 1 44.58987278707953 23.27160219017632 24.73932227953442
53 17 0 42.879936891312255 23.897542519233088 24.51566998083426
54 18 0 35.60698824890238 7.8981673316390415 26.202142296380266
55 18 1 34.65947542798446 6.6074827966482435 25.84007751945719
56 18 0 35.70936844800222 6.0609203650515955 24.9561525149335
57 19 0 36.44008840772762 12.174508435643604 14.982793243688718
58 19 1 38.05724969667509 12.410029817183064 15.556117671232911
59 19 0 38.724931341708235 13.633357594957582 14.910155235790103
60 20 0 12.52132863388048 43.62144477799843 30.902846969866978
61 20 1 13.454910325279595 44.37799584390565 31.31202488799792
62 20 0 15.703159406204321 42.8386881611395 32.23771947830685
63 21 0 10.507434465022358 42.90640347387145 33.081543183376546
64 21 1 10.437913426386068 43.8535588324601 34.23851051449033
65 21 0 11.085845895502754 42.52495986683601 33.469774919662704
66 22 0 8.630327762853044 25.580015449985584 40.21485193428133
67 22 1 4.478073075199732 26.872802696279127 46.54646082727663
68 22 0 8.643320537419179 25.006795039156795 40.740539972756814
69 23 0 45.14291706198929 12.111294328574136 34.587805022861964
70 23 1 46.142843867441634 11.170224554533954 34.03099430827102
71 23 0 44.69671721228066 10.54292834039012 34.137393950478746
72 24 0 37.41398115721363 30.55271013738218 40.929062679086535
73 24 1 38.50282746324995 31.347837910020672 41.36365088519564
74 24 0 37.61930072751762 31.69476950872282 39.99065553618631
75 25 0 46.3372795453892 35.48786544328322 11.701392648212511
76 25 1 45.3785315081394 35.87831531365571 11.999973800237274
77 25 0 43.81144011116505 35.42431277266262 11.512636507439726
78 26 0 22.573856044792674 14.31823899209649 27.779213968778166
79 26 1 23.59299084199519 13.748828048828553 28.48483920267859
80 26 0 24.900927892188474 13.2199275814154 28.335870928857158
81 27 0 25.202327365815492 11.878688028044962 10.389391442818647
82 27 1 25.90698273461384 10.513108281955308 10.193598835482263
83 27 0 24.46396315096223 9.829513875522139 11.660309235312582
84 28 0 9.524172149751191 28.21407731465857 30.014643088579724
85 28 1 8.362646708954994 27.497942298334 29.14714147773025
86 28 0 9.84089032807518 26.877495424236994 28.330739121599354
87 29 0 30.64135399545974 34.08252159344181 17.383688529721777
88 29 1 31.67946885386962 35.22284554362852 16.238812255998596
89 29 0 31.787682529184753 33.76581307185178 16.417622154096293
90 30 0 48.1240122110196 15.930958716805481 43.742953780135245
91 30 1 48.068423080349866 14.818574890000185 44.977338587012014
92 30 0 47.98175904252179 16.11842300298081 44.505836760087774
93 31 0 28.301465381288335 4.027282162081427 16.725665476181526
94 31 1 29.361130053299487 4.079728402321128 17.62899130058574
95 31 0 29.12185496669948 5.999071733696851 18.183541751896833
96 32 0 9.816649359608595 38.81238581918826 10.429774225633102
97 32 1 8.79015968884708 39.0248948650793 9.711561198879245
98 32 0 9.496213538652002 37.67353103458574 9.385625774640621
99 33 0 43.53976557102987 38.32404667807573 21.231940852927288
100 33 1 43.32899571377106 37.47676386641117 20.01314470648853
101 33 0 42.20699551378574 36.12661447422697 21.269276056193515
102 34 0 1.389551822149803 33.54866413264373 11.35414095012872
103 34 1 1.078880884726523 34.784799692551886 10.303728146101182
104 34 0 1.0912553798363513 33.51124107808496 11.22602276304042
105 35 0 36.97777072432559 30.337465432449413 20.571127804796774
106 35 1 38.25187133713655 30.58807462317296 20.087251597913195
107 35 0 37.05068346801945 29.42851116555562 19.73713861520247
108 36 0 36.042457193423985 44.99126927899914 45.215614859218086
109 36 1 36.92792807232634 46.43750819934498 45.887160836370626
110 36 0 36.00451100225248 45.88368773162651 44.00674839358431
111 37 0 14.498520198599964 19.194485462654715 30.230757644033208
112 37 1 14.078108275350896 19.46785557329828 28.995230976312964
113 37 0 14.033650626363466 19.31865902412505 27.62435275127426
114 38 0 6.924996137434206 24.866250634101927 18.467537543509824
115 38 1 6.270783799654882 26.103679746080218 17.4900508392572
116 38 0 6.949360363585151 27.546829038992186 17.628044099701118
117 39 0 23.154004890591555 32.06751728764942 16.55320958689325
118 39 1 24.39285064283233 32.62934774417411 16.319025407302803
119 39 0 23.74432886323045 32.11131053178967 17.73852382046376
120 40 0 21.642811426243515 43.221019351957366 24.43450589727146
121 40 1 22.867521157645193 42.86293634715978 24.34455184511407
122 40 0 23.57103401059215 41.75586303535416 25.328273054903306
123 41 0 32.07930077419662 27.426180293391024 14.545367052318152
124 41 1 31.066395044562306 26.066924543545188 14.706232969339617
125 41 0 30.804743381505528 27.434989831964753 15.961563013532235
126 42 0 23.512513186383963 45.923961252337804 30.95123802143182
127 42 1 23.72711219756233 47.05196572760297 30.226795293324663
128 42 0 24.91501077142289 47.10573778881428 30.823462977946008
129 43 0 4.48086621951889 21.41770684216233 15.109447149872242
130 43 1 5.340340668576722 20.54237245901686 15.117744109764189
131 43 0 6.759044995772053 19.807488778107537 16.358726074681314
132 44 0 9.862120246399549 21.096176793419815 42.06767777966145
133 44 1 9.493161348020804 21.385637401726274 43.8468611056362
134 44 0 9.190062106673178 22.83403862021402 44.10943547498554
135 45 0 29.403998505960555 4.632689354725318 2.434501659412419
136 45 1 29.980748846064035 4.01865100647943 1.562320576045138
137 45 0 29.808824613604518 5.559868093211151 1.54889519473926
138 46 0 4.4195118716187345 8.65389400061524 28.12536590891259
139 46 1 4.652321826856992 8.808373246828573 29.591024980894325
140 46 0 7.522862293745651 10.471643979683543 30.44406929267771
141 47 0 42.19895408216896 8.182433619224263 38.79532535444014
142 47 1 44.28804116227549 6.34141069129965 38.606691070874916
143 47 0 43.04091607682684 6.162563093910344 38.220665233667994
144 48 0 4.60555948797123 18.55210530195468 5.10294696702729
145 48 1 4.255444962547187 17.683133902186814 3.9278425847002865
146 48 0 5.7959510255876046 17.74868057264544 4.526945164199538
147 49 0 16.2879000699162 21.607374608779285 37.81892957056901
148 49 1 15.392053502569276 20.70670643069672 39.19077266778232
149 49 0 16.687019817256573 21.740332415019868 39.674608029880744
150 50 0 8.561808520184723 46.80403835316693 12.803005475526357
151 50 1 8.089277640865706 45.93982274603482 13.266877681125088
152 50 0 9.675241577879655 45.01598449860036 14.290400058671274
153 51 0 20.605944720562032 34.41667320412079 12.637391718396481
154 51 1 19.34832048952707 35.405234996241475 12.29633843229369
155 51 0 18.357772584935233 34.587015686581935 12.515232529514915
156 52 0 46.57069888272018 29.8146988384264 41.06756210486138
157 52 1 46.84697467011497 30.93261625988448 41.97049921350386
158 52 0 46.91517567313398 31.88781743441627 41.33313329422362
159 53 0 8.35225359601278 17.424691516902342 9.982686972200483
160 53 1 6.870303204418135 16.105134260969862 9.610186072934106
161 53 0 7.366302287937124 15.30654167487647 10.696987116012432
162 54 0 17.04034538914483 30.959459625090453 32.15313214045887
163 54 1 16.91483721632533 30.900576826967313 30.28174485224396
164 54 0 23.1695522562266 25.945834594248613 29.768388628691696
165 55 0 3.069725050883971 38.03636477692154 22.353152941750007
166 55 1 1.9519925733016594 39.66913406136156 22.95853675126374
167 55 0 3.330637248640026 38.211457715338156 23.141089571450124
168 56 0 6.360215584957015 15.632165124966741 24.103124598612016
169 56 1 5.866921732488099 14.209208359800868 23.322390024723653
170 56 0 5.651137216640314 14.103948407792263 24.45036353745354
171 57 0 40.48957732735474 26.220261247613568 36.62606552664862
172 57 1 44.764354090988874 27.262083745958968 37.25107189661517
173 57 0 40.77932703529527 26.105712057699186 35.962687911265085
174 58 0 21.317430161305456 8.320176339571525 35.495642660650255
175 58 1 22.861475385605797 3.3200118368696616 35.279691018483064
176 58 0 21.378670872181154 7.8926809098047 35.523554448726095
177 59 0 11.782379035978803 7.1848052164552865 24.885442878806074
178 59 1 12.038599981630837 8.069734386586404 27.995665371979044
179 59 0 13.011985866702585 9.209933385498527 29.228910016989808
180 60 0 26.559915436589 45.01784387010302 5.028245469702381
181 60 1 27.511196205398264 44.14900119208614 4.299194135269074
182 60 0 20.130550969818795 27.57623944139957 11.77658906907752
183 61 0 21.422789277595253 27.521004012986296 31.03351350669034
184 61 1 21.352377250332705 26.69046213293481 32.36344928516378
185 61 0 20.237281903702392 25.81678413381796 32.03395414929696
186 62 0 10.301334545259792 48.08355728336639 41.47901454363052
187 62 1 9.036811070091163 48.13171089299036 41.98215718553833
188 62 0 9.843055476949532 47.36846898651458 41.10522188278679
189 63 0 44.789380408308396 7.556552524526846 12.679418318743314
190 63 1 44.571178779307246 6.405376846994017 11.213647769785188
191 63 0 43.523416021535645 7.887053604222241 11.135986625406128
192 64 0 42.66890114190348 10.627415822508468 30.33761314896385
193 64 1 42.98684757192424 9.519022906605791 31.569091532435927
194 64 0 41.7621106345364 8.978208512742796 31.996696576893136
195 65 0 6.936650112084094 39.42039688510913 33.00346641166752
196 65 1 7.453311778030616 40.48080698468713 34.143562534501996
197 65 0 10.722606324141918 37.90707469232258 32.74881297730633
198 66 0 24.594395579843905 21.99232117623437 43.9839284500626
199 66 1 23.216633162540756 20.67767884940402 45.876668121058806
200 66 0 22.009332299875247 20.10484003882074 45.48461742950123
201 67 0 6.140876687244551 7.196914101534527 43.5455400927046
202 67 1 5.5078314527277685 5.7342643333172525 46.039524392163536
203 67 0 6.720274861110253 6.8853405215433305 43.330838583401494
204 68 0 21.253330643343205 28.90827484368379 27.91234633881328
205 68 1 20.636782374418143 30.47174193640389 27.796118480963358
206 68 0 19.713356681367237 31.29766492304898 28.565139676596957
207 69 0 45.91184215877477 41.6422846790832 37.365478506666456
208 69 1 45.57796048038351 42.572893054102494 36.716476771651024
209 69 0 39.648718412158175 42.693208884491995 36.122439939669604
210 70 0 22.770732052537618 35.13749092125257 45.460994858754084
211 70 1 23.93277545062311 35.795771443434674 46.12577476155953
212 70 0 23.282925080162833 34.46001216369342 45.455536499404325
213 71 0 46.354959433457715 22.9284834821492 22.172481669696918
214 71 1 46.52906134706375 21.994941879406724 20.9502038554294
215 71 0 44.876568997526505 22.389405669840354 21.291541697380495
216 72 0 31.294672801499893 10.998904784747799 11.109200391030214
217 72 1 30.527789521942545 11.222873656746568 10.10173699281915
218 72 0 31.306207041360782 10.53052803483021 10.842512897560745
219 73 0 19.40228027549879 40.00107279670061 10.555363599415966
220 73 1 19.954997219849506 40.58834356285991 8.943041777569789
221 73 0 19.67912525453471 39.35655591041856 9.285712071840653
222 74 0 26.96726207271271 26.865122193181392 7.967633917970756
223 74 1 37.21173562310347 12.329094986015193 3.075994906922578
224 74 0 26.726224801335402 26.322337539312244 7.986209413245318
225 75 0 8.758018346710216 21.061588218273183 21.67287622833504
226 75 1 7.531676154126487 20.11457861549082 21.50013647191186
227 75 0 7.839927286586349 18.94795512492161 22.33308471758391
228 76 0 10.98653106210798 17.081658278060864 18.178540148497834
229 76 1 8.804614871098941 13.190237065743617 18.93538657205783
230 76 0 12.175404470538039 16.17103017516762 17.905027903935913
231 77 0 12.060508258684703 4.557287613874035 24.438810460032812
232 77 1 11.843952663718236 3.239154450549169 24.710636245436447
233 77 0 13.240942948775734 3.783200675474614 24.109266272144776
234 78 0 5.707396320931137 11.820259408491882 5.304257329962313
235 78 1 5.963561399972671 12.828371397391274 4.658319349163879
236 78 0 5.799872494782416 14.406837583840232 4.805301472377485
237 79 0 10.543186293391587 13.239359567641857 22.499931082541742
238 79 1 9.750264299233143 11.916655900608875 22.628057512797668
239 79 0 10.63259944653752 12.012399792400307 23.669467874585322
240 80 0 43.65469405027348 23.456246817971824 39.68470980484654
241 80 1 43.85937382622265 22.666036478643754 41.31587158876295
242 80 0 43.40933176818254 24.01049312749593 41.46232975570292
243 81 0 25.77675340357036 13.64293617911373 33.08039724401644
244 81 1 25.785797819461234 10.294837673570703 35.17430498794116
245 81 0 26.11553523774495 9.968426689614127 34.353425154221874
246 82 0 42.930628241218606 2.4544881122202744 9.83437159522139
247 82 1 44.32537812828643 2.9633426608750875 10.402902320640829
248 82 0 42.35454490948061 6.937010366790112 11.15769842254828
249 83 0 20.764450136513787 21.243131374892027 11.360742003102477
250 83 1 21.081019464834796 18.929036679839214 3.975137699103275
251 83 0 18.27767246690399 18.13885227051372 6.020246373349737
252 84 0 16.526190033968483 37.71065431699505 22.908531779972797
253 84 1 16.584213959938378 39.32420916163237 23.61047749189898
254 84 0 16.75292336440062 38.371025840319575 24.718194438468792
255 85 0 46.12485959672848 39.33159100633085 30.86087330534794
256 85 1 45.56404615935999 38.2779971031046 31.55494690514984
257 85 0 44.35590408668668 37.16350891871542 30.69126912847402
258 86 0 25.999753240561922 35.75471852177226 40.29605324808068
259 86 1 24.909924931618733 36.681306797938795 41.15885249681574
260 86 0 23.69955692951744 35.92557365646038 41.34533129291276
261 87 0 17.44812314033948 5.005381134590046 19.44010067532213
262 87 1 16.05463383853601 5.150309751250692 20.045977385044537
263 87 0 15.316883467325589 6.419879009276565 19.701184167850048
264 88 0 43.35798687048237 18.638141427217306 14.454753502411911
265 88 1 43.91569614591679 19.162391231031325 13.326605900822544
266 88 0 42.49170462826854 19.466375302555626 12.632369349103872
267 89 0 39.95730871117981 33.62006320845995 44.4552498726863
268 89 1 39.41659879805487 34.769362637167085 45.6462023461009
269 89 0 38.1301734723907 35.493468983563716 45.41968287292863
270 90 0 42.05157803930732 11.856336091644726 27.09432747159862
271 90 1 39.41648291363091 8.518147066799543 12.181024508707804
272 90 0 38.407530614533954 8.497707500129302 13.117688857762298
273 91 0 17.20712337483695 8.292507687218674 9.585054325062428
274 91 1 16.631184454226997 7.9686217118967555 10.932423125559625
275 91 0 16.655018125145943 11.199128555150983 14.076938250582618
276 92 0 11.815940875047609 31.17158759572935 31.752416335174395
277 92 1 9.714729509257953 32.93460519187697 32.59358044243092
278 92 0 8.675248670786655 32.51505189202681 34.504059872311686
279 93 0 19.70477213117946 9.860822752163322 10.319675865153487
280 93 1 20.389175460581846 9.334826610577087 9.244788417195894
281 93 0 17.176692345977408 7.147977375287858 11.05723567439712
282 94 0 25.658516604625042 41.75659780071327 35.34752599371155
283 94 1 24.977322713563034 42.71482761203863 36.36503850935253
284 94 0 23.600852077421628 42.404780370620514 36.98322852225809
285 95 0 11.685569708389666 16.73186343791311 43.18061531799447
286 95 1 10.639632041439627 17.26371954416981 44.04179115048915
287 95 0 12.026480936129545 17.24404927900205 43.00036956619516
288 96 0 16.158733009756045 42.66796527944871 22.754142082796033
289 96 1 15.401404931378451 42.01134198328183 23.739311644052947
290 96 0 14.695420079342359 40.054437493823905 22.781404067826024
291 97 0 30.55553925400275 3.642876081463816 7.307652893427111
292 97 1 31.430648706878706 2.953522279582617 5.91043000599376
293 97 0 31.558994232970157 4.573364327373382 6.870444958799389
294 98 0 18.464456542490442 38.82184125635854 36.55312791365126
295 98 1 17.286679654783203 38.809700395825075 36.18034820698304
296 98 0 16.534636733195494 39.14590984108349 35.12746695559807
297 99 0 30.32123395232707 23.887842410453448 38.604409298833104
298 99 1 31.322653790052605 23.895480340638798 39.064944414583714
299 99 0 31.781909355756284 24.272564470549572 37.568267024544056
300 100 0 6.559452056298546 40.15136867628273 40.99776638024944
301 100 1 5.159795471836825 40.926904451023525 42.02931677760856
302 100 0 4.938231261171307 39.97283507366884 40.711854623777334
303 101 0 39.080716957131926 11.804704428920857 4.08622331476356
304 101 1 40.48289562185982 10.530976521715075 4.077812809129442
305 101 0 41.14451649598289 10.91848484423258 5.858533617417928
306 102 0 27.38700908863474 23.944636001250515 43.22771646183878
307 102 1 26.59748832852002 24.713686510153472 43.96006061769376
308 102 0 26.64868556514731 26.024384991243554 43.55220966442053
309 103 0 30.55199716836793 30.876659222273233 15.694851474000203
310 103 1 29.186534194440622 36.23740845664475 15.608903709982595
311 103 0 30.611557266220895 30.455188795057587 16.47178225855836
312 104 0 36.806341534931526 9.811973627266129 11.311890067916536
313 104 1 38.4305709414828 12.785459328305853 9.38536173128977
314 104 0 36.60825657995381 11.007818313071095 11.475392523635094
315 105 0 34.57896949755406 38.787987730905805 11.707083849460723
316 105 1 35.94899898179755 38.758003789303764 11.388172851579158
317 105 0 36.68045379156193 37.303469997107676 11.506850955122967
318 106 0 23.700464973936988 39.36352136300415 40.73432426038721
319 106 1 24.38102024469195 40.642065382149184 41.29711971160802
320 106 0 23.876731295272382 40.40825949093941 39.75025999900909
321 107 0 26.18659557495963 34.35590914958179 6.689260794751727
322 107 1 27.112840250712406 34.08679415290519 5.606240592652947
323 107 0 27.739169266290308 35.67336489895087 6.18055832589973
324 108 0 23.730595752444994 12.19656281660911 15.502703520580638
325 108 1 23.84902027022424 10.101960607192781 14.797887379630994
326 108 0 22.512693181902574 12.20837965096044 15.314548447723274
327 109 0 44.635281822742776 25.85315003329141 40.97181530351006
328 109 1 44.73039615390795 24.910171445543487 41.81076208525542
329 109 0 43.63189804528626 24.5733243397854 40.85622771123898
330 110 0 21.617217868987257 34.672194451268204 4.069141171655684
331 110 1 22.749193802441287 35.71174408163811 3.6953191058952783
332 110 0 23.147240642301885 36.77394424198262 4.309436214927146
