ITEM: TIMESTEP
0
ITEM: NUMBER OF ATOMS
333
ITEM: BOX BOUNDS pp pp pp
0 50.0
0 50.0
0 50.0
ITEM: ATOMS id mol type x y z
0 0 0 27.44053840887037 35.74859718928 30.13975046520066
1 0 1 27.243908303115106 21.18455964795743 32.29534669578114
2 0 0 21.883520094780927 44.570592528499596 48.17085446470803
3 1 0 19.1791515594656 39.59141862025018 26.427164639729295
4 1 1 28.40058219713766 46.277274764675646 3.554770668725175
5 1 0 4.3753430286248145 1.046503778602834 41.60105523536107
6 2 0 38.90862650150119 43.48499764329497 48.923359665081776
7 2 1 39.95619984310264 23.07538659784331 39.02538240306184
8 2 0 5.940368612466037 31.98908883967319 7.192597246903572
9 3 0 47.20702091070665 26.10220519477939 20.734735644425214
10 3 1 13.230152548971578 38.70922934469824 22.807786030443328
11 3 0 28.40987467204852 0.9689658047074328 30.87549126422985
12 4 0 30.607467253095543 30.83675800960321 47.16784762355824
13 4 1 34.090863148244935 17.975309473313345 21.85334361380278
14 4 0 34.88095107431547 3.0226162668966308 33.32964608688029
15 5 0 33.51815617718467 10.5250428566725 6.463356889745933
16 5 1 15.772597394040128 18.186709630346964 28.50768034689393
17 5 0 21.92526685600606 49.39434252622674 5.120468654076221
18 6 0 10.445531033327692 8.077208750957459 32.63970454135945
19 6 1 12.664236223777726 23.31396517635212 12.22326390153149
20 6 0 7.952115283686725 5.532478683882438 32.80060818848233
21 7 0 6.93574327372268 9.82521288261924 18.454553650454724
22 7 1 41.046196020680156 4.857440192416885 41.89522071701467
23 7 0 4.833405276219974 48.78842350495057 23.447034771140363
24 8 0 48.801276183624694 30.229623296292083 36.93886212603955
25 8 1 1.9623301238201374 14.140736786669894 6.011824812552514
26 8 0 14.797322962405223 5.942594711255045 15.891684033481281
27 9 0 20.71883957926675 3.21491246662826 34.61726002957846
28 9 1 28.328595558923602 13.269777065786238 26.16378923578674
29 9 0 4.715343449799787 28.78528393839295 46.449074633126884
30 10 0 15.943769360916399 33.355951601592906 6.591852128790218
31 10 1 35.81510139176984 14.470581771534164 9.16099001130733
32 10 0 29.330701507968985 1.0158083170721248 41.42195174017202
33 11 0 0.26321869321838504 33.9019004980927 13.499560107360042
34 11 1 36.75756489920252 48.107833799893186 12.438503473135489
35 11 0 28.814003963612812 29.616334368663964 28.60016628431612
36 12 0 11.178240717413878 47.62762331888886 22.350458251123577
37 12 1 42.31887588623988 34.973934988648615 14.873522845988658
38 12 0 40.691136350038384 19.837022166267445 44.03253366471871
39 13 0 29.069163107678683 44.07216353552529 34.63670249065578
40 13 1 36.26219407564787 25.066950064006573 47.802742814175986
41 13 0 32.202608416444214 21.195660901598515 30.332893149923528
42 14 0 0.9700610462521132 15.090886887223789 32.999820102699736
43 14 1 14.502845639231378 30.899261081772536 21.439296589975584
44 14 0 6.77954727485967 14.926258824563153 28.492884406232722
45 15 0 29.545927015569553 28.710927075174155 32.669130229701715
46 15 1 32.60437145460963 21.57125560526042 44.826768195867245
47 15 0 18.38866112636483 21.79307470909281 44.596325224550284
48 16 0 40.31413474194896 35.19481210448354 5.0464405906019
49 16 1 45.97195355373955 35.71241745103377 49.938097211038446
50 16 0 7.502642595849858 43.40023895980511 8.157472533942855
51 17 0 30.785392167962883 6.208235961748888 42.38335095372453
52 17 1 40.36371419915035 28.454260844057988 20.36036245825825
53 17 0 3.487032829469532 34.866455664418844 22.675344851544512
54 18 0 36.10800258606828 43.28562108562165 48.75197556275263
55 18 1 42.789528020713796 0.5881410381592612 18.000787446975796
56 18 0 36.50417240782652 8.575589644933483 26.045901565434505
57 19 0 2.7456942001883013 10.000752432000228 0.9388223640602706
58 19 1 39.68341383247746 11.197361620461848 17.266042353316482
59 19 0 46.398870642701034 35.20215712299643 1.604074250335298
60 20 0 8.23743515718088 31.085670923267198 28.862831098252734
61 20 1 11.89519051609461 46.709138392945775 30.698473262272906
62 20 0 26.770236974154344 29.508688708322623 36.50166366334431
63 21 0 15.592379193797976 19.932325917085766 10.512817404487492
64 21 1 9.310721369145831 47.215528279756924 36.975059535069825
65 21 0 24.511045535477397 11.398748171691567 12.736791170342471
66 22 0 2.9261724609214954 21.718610562786928 15.584668066055775
67 22 1 34.81397945809264 18.886995233580386 8.981744658576071
68 22 0 1.2601842335526858 3.374614737817297 33.95011375074428
69 23 0 22.705644408282545 26.816587326375625 44.82448931017191
70 23 1 49.513896180626766 10.845121789246436 33.154724766692745
71 23 0 13.194415049404348 1.0401592310310432 37.9152324860104
72 24 0 16.020552831801993 19.182327172205948 29.426518434546594
73 24 1 41.5498405343147 31.448914692827564 43.6301940329746
74 24 0 13.698902424131672 39.89576516247538 9.308609465029162
75 25 0 47.6394760550559 34.37555980568647 10.776410186899504
76 25 1 47.36676479364386 36.542184216995494 12.696465707066752
77 25 0 10.694171280341193 25.918296714127067 1.2920060507361548
78 26 0 10.383177210128446 21.228687841419873 18.71653173900557
79 26 1 23.17912941276535 13.881395691405059 29.338527204183574
80 26 0 43.177485212901956 5.8826889075453686 25.871585327012394
81 27 0 6.620270729512214 35.822230047142185 19.79323924569052
82 27 1 28.269829332151282 9.16571144376657 7.244936624971872
83 27 0 24.405854700842117 17.773913459263873 46.990608298377964
84 28 0 38.239723920991956 37.42552820665115 45.17358570629031
85 28 1 4.17493416553664 27.60944500572858 29.223735296775505
86 28 0 48.062462373864946 14.617560958582455 12.054906533791554
87 29 0 5.037038858573821 0.8516639063140875 46.45104090806324
88 29 1 33.49423111271607 39.25403157326489 14.08861571251003
89 29 0 29.323775633958732 3.225804137567608 24.273470710696248
90 30 0 48.87414269676752 43.80008173074522 16.93178545879085
91 30 1 48.078512280334934 11.5880287154981 47.46369322527232
92 30 0 47.069680516147 39.93816555702642 31.53473630072939
93 31 0 43.70449424250415 14.64019211499147 42.42776550859925
94 31 1 30.893313167235142 0.664866757341376 17.36318892422119
95 31 0 7.425446118944214 49.05352534575652 23.91335514260918
96 32 0 24.855798242778995 31.980574028787373 18.422398615538068
97 32 1 6.84677263576106 41.104024167426324 9.492617353307283
98 32 0 25.551403854543377 11.239038616950715 4.895814459611727
99 33 0 43.11130350014369 48.63825014071362 48.01743896869266
100 33 1 45.325630603048644 38.70197250736929 16.658520230374176
101 33 0 4.087306206963422 20.37640917573193 11.615667353254329
102 34 0 6.619674057971078 2.699394478562396 36.25708103709641
103 34 1 0.5718554358215039 38.52563942644484 7.350037736881957
104 34 0 3.9734228822981006 4.506717456039015 33.581883213651935
105 35 0 12.292295455790672 21.038901006136324 27.857300444608956
106 35 1 43.024256979076526 36.34974537216576 13.517289193186265
107 35 0 6.602678522586105 2.7949770274142103 15.078681645604746
108 36 0 13.122602239110728 22.800394481521444 34.15239830660609
109 36 1 34.77900114326286 14.177563596025113 18.996267486909858
110 36 0 9.07760291497504 39.40760049340853 2.8549868288085567
111 37 0 34.83296155352727 38.919102506754626 38.863044773437245
112 37 1 12.9722136005982 18.691643020469925 29.379515595716697
113 37 0 13.64057249829739 18.542739936286583 9.867520498453457
114 38 0 22.977889529768934 2.2490875636334478 39.970626391131724
115 38 1 3.8499809847857533 25.94168951497685 15.342509892898677
116 38 0 28.857676222049164 47.954530591064355 32.26535015380139
117 39 0 1.7874641265379014 21.52981060559013 25.4918529374098
118 39 1 26.806689084634257 34.06831979110471 13.881997876759035
119 39 0 6.458890900812266 19.645034492407078 47.79382705904949
120 40 0 9.366592019536965 45.19839265655246 27.187141859635798
121 40 1 22.845580829386016 44.10095199305886 22.93147950435865
122 40 0 36.19801795941026 19.970044924705462 45.184912411300836
123 41 0 34.50353128008495 34.97896422208443 16.383050823250475
124 41 1 37.83734838607889 31.803602715381654 12.002931914321719
125 41 0 8.050234729699273 39.81331858736729 47.93018949302669
126 42 0 22.90690698030783 29.562991295663306 42.875339106753145
127 42 1 22.86205270160649 47.59273349448745 28.788823853987694
128 42 0 41.02448184883082 45.44382817519053 40.76704424523297
129 43 0 7.967150035069535 31.437328486990836 19.916516573722838
130 43 1 3.1377897522286218 21.201110496842468 12.936246098594799
131 43 0 42.4210613903366 1.680582582532575 47.92169144971886
132 44 0 17.76179934173269 17.837092105852424 0.8521332863149931
133 44 1 9.261846220251575 20.06419006416539 46.46218676101817
134 44 0 4.984037437486488 47.24410174682578 43.47672975800422
135 45 0 22.71423569924568 16.32391321202852 11.628937495699597
136 45 1 30.722395441657447 1.6545299562656353 0.7813727871305445
137 45 0 21.446708928252427 3.402403985647412 12.58822425584822
138 46 0 11.04997207811044 12.65424362769656 6.571507912979063
139 46 1 0.6046638684205622 5.776676792378117 30.922308548595897
140 46 0 48.67497998275009 49.48282065089577 20.46091931813248
141 47 0 8.180079347549256 31.915611937706522 24.526732411088226
142 47 1 49.46674938698144 3.2670557484444163 39.160738239339494
143 47 0 14.4471693134166 12.064110610782757 33.12991487815253
144 48 0 12.309804584595824 33.2887879327185 25.856792617102936
145 48 1 21.204695167539008 27.73433102317625 14.353285206237906
146 48 0 35.318154630209065 20.748113307646143 18.024530145825352
147 49 0 41.40946262173386 46.22571142001705 2.330526548244873
148 49 1 11.634663104372414 17.42888749663015 40.746637232535754
149 49 0 49.245136960306596 48.424320808060784 45.243902967033534
150 50 0 14.820967612676654 49.59910389322265 12.470424761631662
151 50 1 5.297189681275475 47.5455552527681 11.672256606409015
152 50 0 34.46549838408331 2.9528599548356103 36.5159349705364
153 51 0 44.06633171939829 13.64033037855844 18.947386341310974
154 51 1 18.715583725093115 37.43754666357072 11.890879613342747
155 51 0 8.600325983508764 22.47591969526543 15.220889355086461
156 52 0 41.96342148538271 11.90236037312475 25.133543839598513
157 52 1 47.12889967865515 31.69920266786359 43.36320989535436
158 52 0 47.010591826248465 37.53401225766977 34.984815950150605
159 53 0 48.363061505804666 49.69247689430626 22.579339303384547
160 53 1 3.546521249223842 14.641002165747414 7.619525655846357
161 53 0 20.860909923468228 6.570727026639007 30.18845544661206
162 54 0 19.146806803204655 44.74517012565926 48.37514897321085
163 54 1 27.344667768678338 13.742990687741491 29.612331943633382
164 54 0 44.824817038445936 20.33166426540255 27.605455842995436
165 55 0 13.581902252241019 22.773824466691973 20.082666710464373
166 55 1 12.42099733160957 25.293237766716043 15.520265526951926
167 55 0 18.646975613633224 26.24781036959133 37.5129051895916
168 56 0 16.66426668786683 46.18181514524892 43.09970741352572
169 56 1 2.4355051475124507 12.68385966131114 22.30835600336651
170 56 0 5.229303218814384 17.420221179128383 36.993847038830474
171 57 0 34.007397970673416 31.108414284327704 35.52511432647102
172 57 1 10.248964553061654 17.086083741553402 33.81126435048616
173 57 0 43.935458736280935 27.17605981311821 14.150321965895461
174 58 0 1.5251853203809453 35.5098079451839 0.4299974425482993
175 58 1 18.632438466133532 26.527018036947748 46.10112397452551
176 58 0 4.485803208717979 20.30198388574118 1.2507875911275297
177 59 0 17.125396526006742 31.092008804455638 13.964934951959867
178 59 1 10.488978202412225 5.787739521802194 28.85720980395068
179 59 0 34.74458719004595 33.57619568412923 47.42857731577712
180 60 0 0.1580305481608481 32.372153294260855 29.996840776898747
181 60 1 29.435789882654657 48.13737113556909 0.846191125751141
182 60 0 34.81996811519076 40.68968478928289 25.47141069963437
183 61 0 16.702423543423386 39.531529135162586 4.885287655776705
184 61 1 22.100702441092356 25.997590816011783 34.69568838956483
185 61 0 4.557779557257875 11.39923750417186 20.52597008394927
186 62 0 31.14584907826076 44.351669428212894 30.951081904801804
187 62 1 6.675146496503027 49.02865168484024 43.587860421251186
188 62 0 25.12186968003021 46.11963611681187 27.081708665843834
189 63 0 46.165141973823275 41.46371419833985 48.38318700379402
190 63 1 45.98784670393511 1.805885357691251 8.740864406584977
191 63 0 19.47751967090383 47.57122403635311 14.996511285519468
192 64 0 8.052646733330896 44.28676709720396 22.32814823609507
193 64 1 45.39083673268173 8.01311574012197 33.05544876999548
194 64 0 22.0311157531251 3.827557306430556 34.82182947968899
195 65 0 12.362651226205676 2.0148308267341255 3.0238888236271633
196 65 1 3.0564013128873944 45.38397269450897 36.99199434292284
197 65 0 44.870445545066104 33.63831587752521 26.45522728929428
198 66 0 15.228791679601107 49.87389274729669 18.13357171858822
199 66 1 23.531334518184583 18.913663027292095 48.97414994353328
200 66 0 8.744209090947994 16.401351570628304 34.02882268150828
201 67 0 3.168789147426117 30.348428466818635 23.88375758839048
202 67 1 14.199651956182917 11.92205987834664 25.725115464432623
203 67 0 18.393257958595388 22.8178780931716 16.880480853566578
204 68 0 48.50015518151074 6.689860832120561 4.862185476064037
205 68 1 17.171253420984332 29.5512273550782 32.95673434446045
206 68 0 19.86074394317202 49.94819930696591 17.606433485860727
207 69 0 36.07994601568418 31.88865727420056 40.650861604932416
208 69 1 48.810010208003874 44.487747472220455 38.226729398222325
209 69 0 34.923300231378946 16.796552353900804 7.408375022488743
210 70 0 3.147359771058067 12.117818575722337 21.637015104815042
211 70 1 26.097681452048143 38.65123046324161 47.93484958989097
212 70 0 5.881812140368847 5.376204256939995 29.499114691952716
213 71 0 37.27916992958373 42.39009932515945 46.76998416602359
214 71 1 49.16868800651887 19.991871870793325 19.018781930048043
215 71 0 7.423105697134396 34.23560369661478 32.82731137777961
216 72 0 43.09236617929632 4.868432746549988 24.876255383310607
217 72 1 29.055418443084843 12.077051356361501 8.45275944456954
218 72 0 42.96840412172642 2.9337466078359746 23.519521682247873
219 73 0 5.803775372012791 22.868583265245586 48.96436545697607
220 73 1 21.18421736489275 42.854178921768245 5.868566429939145
221 73 0 13.568482798015326 20.207098885565603 19.979725739339987
222 74 0 33.56797034293506 17.23793043717314 35.67784812593339
223 74 1 31.95799855213503 19.957386896217145 21.587855071435794
224 74 0 30.727346618545255 3.5147384793571983 41.10532579949465
225 75 0 32.65005905034724 36.30469993025608 26.841062781650486
226 75 1 5.52566104111723 20.251631142514146 20.269792301471497
227 75 0 16.04405260478879 1.5119734814855892 36.8499547874446
228 76 0 5.509687872735961 30.329163633861917 35.13745197757708
229 76 1 31.738587820852633 47.95399112365082 5.167442507140564
230 76 0 43.34925445017758 1.4959724294548642 26.728913102216282
231 77 0 20.203962511447155 26.189696581561037 18.260877609248556
232 77 1 9.530458974043999 0.9582030055651143 25.906406560560107
233 77 0 42.11343639318853 18.647018635373367 11.154713403688854
234 78 0 4.027329449784464 4.272159486037864 11.064101531306497
235 78 1 5.000565116243561 13.253001048165528 3.30805618568317
236 78 0 3.281558070866044 42.79095905590528 8.102329752874018
237 79 0 27.968336681768527 38.650493095213875 22.81954203066723
238 79 1 7.670349624939395 9.981541050731083 21.65008911651344
239 79 0 26.39727000734941 17.466270545643592 39.060557576506795
240 80 0 37.556762663217164 46.33967441772058 1.4809071744792073
241 80 1 44.78369406201845 19.63117145659434 43.916271186564735
242 80 0 34.54715445419429 49.344402046572505 37.96871486646461
243 81 0 18.227226888840196 25.044259891274354 18.82386709010759
244 81 1 18.246323979834834 13.045815664346478 24.79827879016163
245 81 0 34.07511005243001 13.86637509409643 26.217924957528933
246 82 0 5.902342437678178 7.986192710047854 2.3454387616742225
247 82 1 48.53362398839985 0.19360527992117785 8.93037448865661
248 82 0 30.657287579311426 4.0654826905639805 44.06745362197195
249 83 0 35.96469857577108 48.303274438766664 25.39820297316242
250 83 1 15.021710202874615 27.475380586130218 46.53977580171442
251 83 0 26.02975537575037 13.371011466112765 43.87193967803506
252 84 0 18.593831341749063 0.10266223884517328 12.392506436413605
253 84 1 15.912097017275563 42.9355297992584 22.92565512247573
254 84 0 22.22448410812771 16.825368826883267 44.017541412235474
255 85 0 47.252114544838065 49.58698584630764 18.848368429951453
256 85 1 48.30557461976971 39.593045241427994 33.7825022241855
257 85 0 12.272740164504274 10.845410207115249 8.32235786638282
258 86 0 46.12116693435456 14.722644082890207 22.669907481059294
259 86 1 24.698079247255933 38.90655086070428 42.210770960291434
260 86 0 6.9672713857708555 21.358711735376055 42.14279977000666
261 87 0 40.8818638861566 5.119620857513035 7.829533851093914
262 87 1 15.210687694308655 3.7691987349047555 21.2320590011717
263 87 0 5.388476684571945 28.39186661795151 12.334729223917995
264 88 0 29.83477397823119 5.886957349848571 48.76558924688052
265 88 1 46.62559165573521 19.589422429376825 12.110241131275457
266 88 0 12.54640878167365 24.166137371326577 2.007480849423874
267 89 0 31.991835276576303 20.42679302181469 18.892719894269252
268 89 1 40.46672328176949 35.45147129973426 47.71484036156075
269 89 0 17.61440296290039 44.86986370686938 38.50545263704944
270 90 0 17.8913392605425 31.06349534065267 14.425544717877882
271 90 1 43.71707641996327 5.623337049008348 10.623221671281797
272 90 0 9.178685520933893 20.13994426475543 37.24080276959061
273 91 0 26.34148835779778 24.367589874188038 0.035274809551498955
274 91 1 21.271556380768974 3.179055831789729 10.413764808485023
275 91 0 46.599940605018425 10.764014405758918 42.89155297347592
276 92 0 40.11783555581011 7.97949930040643 30.286836700912477
277 92 1 5.786455237580924 36.39241577562183 31.873700757504352
278 92 0 40.56983647320422 23.978922221083565 45.73234333489554
279 93 0 2.4817770223941693 14.63976550912123 35.72904036890676
280 93 1 20.905523489353516 8.648602723418422 5.363931324578499
281 93 0 40.85133748532121 23.645402308193443 44.0839065915252
282 94 0 36.65604657027196 20.504864772836843 18.689638047165918
283 94 1 25.781197599894632 44.45136679310626 36.86346733889482
284 94 0 0.27733157594257435 34.71539972204034 45.96833752946155
285 95 0 35.50063993733378 8.857348734412035 24.19354028162924
286 95 1 7.019108182734087 17.949159905164972 46.85326855294714
287 95 0 46.134647809486665 14.144800398000347 17.004932140420387
288 96 0 29.997473034982132 48.15641097808355 7.403256776503555
289 96 1 12.848221452028504 43.67639481285014 24.593910888614886
290 96 0 44.922955262516105 9.302813279509417 26.631841120531963
291 97 0 16.31756577840217 15.82867477348163 22.361779410099047
292 97 1 21.65434462685603 17.868122443142138 45.74587737418077
293 97 0 36.57558703111516 36.36292210855125 14.520025572205343
294 98 0 28.876898848215188 38.95864554706698 39.777303149957575
295 98 1 17.226601681546374 38.543861099060024 36.7941159337716
296 98 0 7.083025735026096 43.29366301648803 22.077227910862632
297 99 0 24.325604972064642 22.420337573217445 28.40356414213969
298 99 1 31.05817268921182 24.908609156543946 43.33765201162723
299 99 0 31.40795918701327 20.070866002778217 20.880011883276552
300 100 0 40.51245031559807 17.430330614024374 10.600504299097617
301 100 1 2.9711516720732405 43.798722762692094 45.92377574317585
302 100 0 6.003646708748494 16.744871860715545 8.797650369792999
303 101 0 5.828985028583523 44.96171582036582 2.875597053365868
304 101 1 49.021150694877434 4.8251675716705185 43.17027100497295
305 101 0 28.341377224932806 18.38532002167586 17.13736435125897
306 102 0 37.85911914662992 15.7351103384041 32.87516806019477
307 102 1 25.866937447443092 24.248693053844065 45.0570977949551
308 102 0 27.730811176142947 41.33013778670753 36.285337510760094
309 103 0 1.9617621842568989 38.62687267470515 10.848097652294545
310 103 1 45.153392396693356 2.14903430136474 16.654488379200725
311 103 0 5.018108513485597 23.762530362226542 40.98203044425062
312 104 0 14.929213981205017 7.5463126796094135 16.509392768142952
313 104 1 40.69095490571098 7.020581102060418 11.368786177073357
314 104 0 3.4717539342149446 35.263378897492004 19.75511055881099
315 105 0 15.557923620152694 35.93498988947488 16.79433308649952
316 105 1 36.38813918746289 40.7581572869571 10.883625886937747
317 105 0 48.68139227137016 8.14324916113664 14.539204568570659
318 106 0 9.003076503909531 17.2950112709691 24.018976815540523
319 106 1 26.107239071693943 42.678532044487575 44.4694926709032
320 106 0 11.01696605802505 31.15368454304156 5.60518571269709
321 107 0 22.949412486495927 16.132266503715897 15.815567446201644
322 107 1 24.130327167325508 36.49046686364682 3.4602357430951707
323 107 0 43.94360494869436 36.74048869445682 8.820910620568233
324 108 0 46.928968410930615 25.316728941572638 49.96262117923775
325 108 1 9.865022042451942 26.745478482353395 14.515646206402073
326 108 0 15.204550292848676 29.55110483539563 46.061488317591795
327 109 0 40.26766720549304 36.18827541617278 27.970644030965296
328 109 1 46.11445169509605 24.617981659087388 43.69061249073273
329 109 0 41.70238137650578 10.702185385022261 38.565120289611485
330 110 0 0.6277456239808497 16.157500077523295 11.47328254216224
331 110 1 25.341709749937774 36.84205923164221 4.884159867640289
332 110 0 25.745829747955163 46.91321189228244 11.427517436076911
