ITEM: TIMESTEP
103
ITEM: NUMBER OF ATOMS
66
ITEM: BOX BOUNDS pp pp pp
0 50.0
0 50.0
0 50.0
ITEM: ATOMS id mol type x y z
0 0 0 27.135293589856445 23.840564500732402 32.39431833188165
1 0 1 26.95915779876764 23.231388518910194 33.05638761552323
2 0 0 26.743095245657642 23.730003694461352 33.741655296589734
3 1 0 26.483982149322742 43.9784916919012 7.604466123069333
4 1 1 26.572956119784738 43.40204179336126 6.887061956425403
5 1 0 26.312524069345486 42.66232439078249 7.106438220398124
6 2 0 38.19459536449236 25.2904920743672 38.32294445486351
7 2 1 38.030189326959345 24.66343426036393 37.80668968317699
8 2 0 37.48442360706408 24.77740690643212 37.280654478248515
9 3 0 17.16825878447054 34.93902239867074 24.607732961519734
10 3 1 16.23065935920805 34.75952339276833 24.144331019632087
11 3 0 15.609747704027898 33.91868253468765 23.85219021080664
12 4 0 33.83346314084163 18.38180446502262 24.503047692465845
13 4 1 33.94344382812704 17.876759939048796 23.84650274964965
14 4 0 34.016409843077525 17.056066541424407 24.103889982418615
15 5 0 17.545296351581694 18.975375719501542 25.582904965416216
16 5 1 17.074290258673965 19.48288044598853 26.02657354533124
17 5 0 17.0700378931991 20.203394169995345 25.697785023556026
18 6 0 13.080576177394734 21.77826820638985 15.260596901765798
19 6 1 12.283735928043743 21.50422738453201 14.46911272131987
20 6 0 11.404675476568979 20.786785952128145 14.245166486366287
21 7 0 36.630848114095535 7.05440321330741 39.11967976603752
22 7 1 37.18197108766669 7.557399495910784 39.59541666395771
23 7 0 36.967965061563696 8.362769004492526 39.577118001608014
24 8 0 5.811669449736187 14.947064452173743 8.610998210497732
25 8 1 5.241348969925113 14.60830835790249 8.250342876912354
26 8 0 5.322418580344808 13.743255472454125 8.403398054194236
27 9 0 26.495812039554963 12.7574466490947 27.956497008333752
28 9 1 26.629782437448284 13.592521608723416 27.72399843611427
29 9 0 26.117043381369122 14.072248440565108 28.146371240257366
30 10 0 33.84694123630602 15.350896220713098 10.576598668070021
31 10 1 34.384962712231584 14.759251078873286 10.780401365098278
32 10 0 34.29073761679208 14.414024491720927 11.502255144858733
33 11 0 33.52865492802349 46.21236646553888 13.193022809620006
34 11 1 34.322215457776785 46.32818398371379 13.369726819473472
35 11 0 34.51575150111539 45.78147944926216 14.007555418329066
36 12 0 25.035207735361002 48.26875897635716 37.132231884626435
37 12 1 25.34153775074544 47.68357443993771 37.78512814584788
38 12 0 25.260721153355714 46.89073609411189 37.54547204737109
39 13 0 35.436663985891876 26.690470387021044 45.90634938588832
40 13 1 35.65645559568659 25.894017602665087 46.154985637207005
41 13 0 35.55931474177963 25.37815224868181 45.448203974498306
42 14 0 12.562289365732312 29.255739948528607 23.053773923651885
43 14 1 13.346666553578943 29.181669826179828 22.44729041898844
44 14 0 13.646305190150153 28.240168908716004 22.27790187263456
45 15 0 31.738612078340683 22.412196445877804 43.39866669740989
46 15 1 31.688095183258405 21.959136826160517 44.169709396072946
47 15 0 30.8201985589691 21.85159353223875 44.36596840864516
48 16 0 44.151852598705155 37.10660622009389 44.66506084468082
49 16 1 43.60145381698246 36.750994593350136 45.29405262772421
50 16 0 42.76100580057749 36.66334869274414 45.064878730670046
51 17 0 23.947583569743692 39.20844256176546 42.989379220602714
52 17 1 23.616615654206715 39.91313017598045 42.955276447279495
53 17 0 23.12248250172683 39.95630851852098 42.32430516141067
54 18 0 40.08021544922735 4.253890279302358 18.4925201328467
55 18 1 40.53204944141341 3.7821570800319466 18.610796606111162
56 18 0 40.68601891650804 3.6600172653630385 19.449089508919233
57 19 0 37.295570414201144 12.318806327043767 15.271846686478742
58 19 1 38.02473302886975 12.435021530788404 15.521706103757499
59 19 0 38.406258566808425 13.071857005099176 15.201108212065796
60 20 0 11.952312778654337 44.29837049412038 30.66143288639935
61 20 1 12.519341659651966 44.950431787171645 30.901627827081228
62 20 0 13.226893367053943 44.52973342831698 31.197429450408396
63 21 0 9.630628472453047 44.00390401999811 33.223235681717014
64 21 1 10.489155284120432 43.720957870896264 34.191576136842954
65 21 0 11.485051824980498 43.12662393755355 34.843786032375995
