ITEM: TIMESTEP
104
ITEM: NUMBER OF ATOMS
66
ITEM: BOX BOUNDS pp pp pp
0 50.0
0 50.0
0 50.0
ITEM: ATOMS id mol type x y z
0 0 0 27.12139808387606 23.851997033393644 32.440485709159596
1 0 1 26.959364351476975 23.22922748542915 33.05587709554894
2 0 0 26.753526386210112 23.75343409680466 33.70372073347681
3 1 0 26.458068887440508 43.88760053866523 7.6128787681887475
4 1 1 26.575545423935825 43.40531312891088 6.881660725935185
5 1 0 26.29675340920255 42.70078272141286 7.184220102340031
6 2 0 38.20271350154799 25.22895796258645 38.29837614228851
7 2 1 38.02747615526499 24.66833755835829 37.80627087248372
8 2 0 37.52061833881303 24.760561753893477 37.31052368191917
9 3 0 17.238775226533523 34.922621201023794 24.643198110609617
10 3 1 16.22662435748646 34.762819278828815 24.142267184818948
11 3 0 15.606540936822498 33.88754769053326 23.851241879032088
12 4 0 33.83886451998269 18.355366198527054 24.473233467914657
13 4 1 33.94336463524383 17.87584267616777 23.84922631418927
14 4 0 34.01278937604333 17.097641234977093 24.090029557841703
15 5 0 17.51243300022615 19.01789888019058 25.610549501512473
16 5 1 17.075832412142734 19.483642728732036 26.02397998034172
17 5 0 17.07806411031069 20.148462796850055 25.711741622798847
18 6 0 13.096002719838534 21.789659182040506 15.266400445116979
19 6 1 12.283967329232159 21.50417961919244 14.469520599525524
20 6 0 11.38557593578539 20.776101998833017 14.232634218891258
21 7 0 36.60617598045252 7.150805565359681 39.11816148289207
22 7 1 37.18788606206796 7.553884913819035 39.59904110214796
23 7 0 36.898025238238986 8.322529357367253 39.52066910147259
24 8 0 5.792472398504681 14.894349703999637 8.603462177774505
25 8 1 5.24175778734046 14.607464891197747 8.250720217143238
26 8 0 5.334953083799171 13.809348222262846 8.404787162054102
27 9 0 26.500047147420066 12.803020616771592 27.94670749488362
28 9 1 26.628236983783832 13.591595496993554 27.725556066409023
29 9 0 26.137111278048124 14.040809063424264 28.131449425497646
30 10 0 33.89102449590396 15.318990620552148 10.565366175256843
31 10 1 34.38058430082537 14.760956659927407 10.783584669551441
32 10 0 34.3128738803181 14.421089614053288 11.457459159271
33 11 0 33.56572242784195 46.19298150927127 13.226930984766641
34 11 1 34.32244797224614 46.32817719013737 13.369833885405654
35 11 0 34.475227758833455 45.80107546180609 13.972145338028868
36 12 0 25.027504327602067 48.17117163242728 37.107816344800774
37 12 1 25.344421107076457 47.687695554939104 37.79191187607183
38 12 0 25.222474244833013 46.92294253382709 37.46102939499798
39 13 0 35.4415911886 26.65483253862893 45.89955104795282
40 13 1 35.65661086780557 25.894583512548962 46.15446111950622
41 13 0 35.55865791106021 25.411789259070776 45.467938740295146
42 14 0 12.55117750976604 29.156163087372143 23.069173780332786
43 14 1 13.35175358675462 29.189862591192867 22.442518483360203
44 14 0 13.57322050708012 28.203807410237623 22.33733288129185
45 15 0 31.730054729849723 22.39983119066636 43.419579659265914
46 15 1 31.686799266271983 21.95906540861494 44.16892305982884
47 15 0 30.84200812116176 21.857933727878336 44.354768752312246
48 16 0 44.06191808842106 37.10592893097737 44.617806649357014
49 16 1 43.60537876256808 36.748513488505104 45.30268858779827
50 16 0 42.7882199181451 36.70382424123101 44.97397631914495
51 17 0 23.9138018949279 39.26061487615817 42.974539673441015
52 17 1 23.616059346951342 39.91065582316549 42.95316619040066
53 17 0 23.165061892438704 39.943217796443086 42.373298745204615
54 18 0 40.117851821393906 4.216535231312382 18.54263763677548
55 18 1 40.52994799415124 3.7844745999891107 18.61334210532187
56 18 0 40.682208915639016 3.65965745892541 19.35845388400583
57 19 0 37.34816338398201 12.32009660346015 15.295461662705778
58 19 1 38.02264118894179 12.438056844462384 15.518418352422335
59 19 0 38.39093674085355 13.019975845964032 15.234609840205021
60 20 0 11.988973360129338 44.304490375396405 30.67435641012602
61 20 1 12.521126208565352 44.95186567219229 30.898370136534904
62 20 0 13.195086177478894 44.52047435186219 31.182692577567757
63 21 0 9.511375704781008 44.14369920038412 33.26951461045631
64 21 1 10.491557912906547 43.70748690328601 34.1807022158893
65 21 0 11.532295657283472 43.18270254714064 35.025478483522164
