ITEM: TIMESTEP
113
ITEM: NUMBER OF ATOMS
333
ITEM: BOX BOUNDS pp pp pp
0 50.0
0 50.0
0 50.0
ITEM: ATOMS id mol type x y z
0 0 0 27.099105288281272 24.09550616943964 32.48057252681773
1 0 1 26.957713625055405 23.19447106579101 33.047059739183844
2 0 0 26.69108758217128 24.11113068167294 33.866758145042546
3 1 0 26.324514302323152 43.70342914538629 7.863962864951671
4 1 1 26.619802281498483 43.86913089445341 6.5455574157581955
5 1 0 26.00263280987027 42.246427045540756 7.697173589725328
6 2 0 39.52176978297284 24.70551111926884 36.823914201374805
7 2 1 38.39625312078977 24.40396693634016 37.333232757364534
8 2 0 37.23844326169104 24.616838020133514 36.373548937853855
9 3 0 27.94707167202018 4.416473057809074 38.25289655380211
10 3 1 28.708701523944555 3.254070942361838 39.62308566823254
11 3 0 28.076493104816095 4.797640208848719 39.00104360017368
12 4 0 33.78040703786597 18.59954881003206 24.86258893686577
13 4 1 33.94633901838748 17.87775504285353 23.81432956781956
14 4 0 34.03599010022086 16.791555780882817 24.247767033065184
15 5 0 23.104215802790847 26.24407536786355 43.275751959628884
16 5 1 23.153843149864016 27.17600567076673 45.08016068831896
17 5 0 22.73950671804389 27.398138016703594 43.18484656307594
18 6 0 44.09293309500951 34.198503125826534 9.741987378362078
19 6 1 45.1395324831663 37.34713310521964 9.545961242906285
20 6 0 43.91388816160033 36.91316145111323 10.256450769234206
21 7 0 36.1955179190893 7.293136132965212 38.84960025111895
22 7 1 37.24355478777726 7.5150986794127865 39.632308386441494
23 7 0 36.41687323775291 8.799564346321532 39.25799574784646
24 8 0 3.6340930769281092 16.083215551639718 11.489767735459356
25 8 1 3.612328092137839 15.256205415877687 9.855907744407565
26 8 0 4.3789521203803625 14.361478654687655 9.74882672835651
27 9 0 16.61390187949552 27.643063040259992 22.75537652552236
28 9 1 34.34829164538752 13.904774527261225 6.546749607412525
29 9 0 23.692142240224104 9.858169154134579 14.459788699261967
30 10 0 35.07901379190184 15.927917184910863 14.648642436512032
31 10 1 33.910387247358635 15.895354612038794 11.386538773189605
32 10 0 32.50184463990064 16.762410854927026 10.9920772812752
33 11 0 33.041929181440835 45.98901546619825 13.242202107274363
34 11 1 34.362234434426675 46.35842838954526 13.35334313543384
35 11 0 34.36108378240166 45.519765646850765 14.220511464154805
36 12 0 40.493545421466834 38.45601533983429 11.424380820810665
37 12 1 41.73865815396079 37.97636356973476 11.131495073886006
38 12 0 41.87210202172636 37.2214599772913 12.331545724764961
39 13 0 35.33122159992682 26.94229888063452 45.69618695316008
40 13 1 35.66587343149905 25.87796265396927 46.18329626699332
41 13 0 35.49634137095202 25.342658701016944 45.18387608437736
42 14 0 12.585150600379771 28.64873329533199 23.078349093740815
43 14 1 13.37686204118406 29.22507013902131 22.425015549460007
44 14 0 13.18186926008276 28.156258867745652 22.646583077572473
45 15 0 28.724240476499098 21.75721718200697 42.55086199296566
46 15 1 30.472488059460435 21.813029059505162 43.59780493406768
47 15 0 29.802814155461228 21.81521283555337 44.33791947023719
48 16 0 43.731415729064075 36.00694968490211 43.901288085901115
49 16 1 43.577162215389244 36.102346878966706 45.25060732777912
50 16 0 42.40488627260518 36.35045483846366 44.30229776228238
51 17 0 44.09487520879638 22.41973014626575 25.567956583370542
52 17 1 44.5657202640273 23.271785052769864 24.74383870543259
53 17 0 43.17800686584095 23.799451321679395 24.54523822856767
54 18 0 43.77719375279646 13.94980103082621 18.96405828157034
55 18 1 44.22017893245967 13.789218736805438 17.636059286703514
56 18 0 43.75596128424044 12.493468472381108 18.007011808902455
57 19 0 36.70137560251409 12.2148857972969 15.073030534947065
58 19 1 38.04766578606647 12.416927652010472 15.544714678365303
59 19 0 38.63092094939629 13.467548898881088 14.995935845197856
60 20 0 12.33515133736345 44.18356472093449 30.73855962864784
61 20 1 12.90299445823306 45.18262101858413 30.94109105234551
62 20 0 14.325841378879355 45.1386278833261 31.241871139771614
63 21 0 10.445369382712297 43.06499329044865 33.19712697458848
64 21 1 10.445611800438579 43.83153934633035 34.22120974369751
65 21 0 11.024331623419494 42.718416685288624 33.63272881711982
66 22 0 29.598701696422957 18.657267756435978 9.642227616289953
67 22 1 30.65692475274908 18.30338739029048 9.16062465336936
68 22 0 29.9528183208128 17.6956893976605 10.298736542257169
69 23 0 45.295815649489086 12.018592942290857 34.52062018450739
70 23 1 46.11983442675302 11.17227464733723 34.036843780868445
71 23 0 44.91197590055067 10.602746229435756 34.109631644534765
72 24 0 36.967206670206444 30.660670026625198 40.71638611858257
73 24 1 37.795872530470284 31.473660020249213 40.85310548559095
74 24 0 36.73332685180142 31.66840369034328 39.24774012644033
75 25 0 46.28258846217653 35.48247680799342 11.693977416075143
76 25 1 45.3660707095474 35.87589141322991 11.994550475679311
77 25 0 44.06400917525857 35.48612114687498 11.580691141400667
78 26 0 23.372969007660128 13.752934723400953 28.017210975149222
79 26 1 24.302846024810297 13.194190740156028 28.63729670236757
80 26 0 25.436160740366613 12.798022797610008 28.434242683968797
81 27 0 25.30172050065646 12.091979745350672 11.057678732357955
82 27 1 25.921067636028862 10.97754973391317 11.197903777266237
83 27 0 25.016199160114827 10.930736601198655 13.078733426634702
84 28 0 10.473318290593694 24.879556314530774 25.77151507630171
85 28 1 9.179438445648564 26.06023931952296 27.30408922162601
86 28 0 10.433298442562075 25.946599797009195 27.13625397999098
87 29 0 30.811596004020277 34.31236564132498 17.18856382992687
88 29 1 31.66862896563268 35.19646791039288 16.25525342813825
89 29 0 31.81388820887144 33.944981154433286 16.360860206803792
90 30 0 48.127032949125336 15.718391435113165 43.89148586516941
91 30 1 48.0686017297291 14.839160936645 44.959968020652944
92 30 0 47.975951404753 16.001705807379285 44.635208358567056
93 31 0 28.422981051070803 4.023249183676114 16.825307203272807
94 31 1 29.350469869923725 4.102636562662597 17.629110904496297
95 31 0 29.170913032088137 5.636531049267318 18.082011509414087
96 32 0 9.718987043542242 38.874365710779095 10.389967906613972
97 32 1 8.803823148813336 39.00996121327903 9.712747190876053
98 32 0 9.375679053631131 37.85513055410813 9.406289418668223
99 33 0 43.52155820697884 38.22550529101266 21.064535633211793
100 33 1 43.31617995038291 37.466340997315406 20.039739218593464
101 33 0 42.43019761236378 36.391846183561036 21.011160795202247
102 34 0 1.4098273916800708 33.763353934532006 11.21027936964255
103 34 1 1.0824053449262863 34.76143510393067 10.322360804968529
104 34 0 1.0146362908544886 33.67038004272835 11.07176082712074
105 35 0 35.112489616370674 23.907862904698423 39.79835788582317
106 35 1 35.74610579657221 23.496542706314663 40.94102025012305
107 35 0 35.06245879400961 23.03606085214288 39.57991198824187
108 36 0 36.19628477075324 45.21647431850337 45.364565013696804
109 36 1 36.90630918982162 46.41493998365974 45.8551049781924
110 36 0 36.196267983243004 46.02016651430151 44.37077247173729
111 37 0 16.543360359054276 21.78156296113597 30.28488013389013
112 37 1 15.130576933228948 20.505299423126143 29.42340887939052
113 37 0 14.75305561680591 20.1346938069553 28.200508362420948
114 38 0 10.657325344836321 30.966354414268377 21.842305430745853
115 38 1 10.607928068759662 30.026388181369512 19.960916239999868
116 38 0 10.201901282268432 31.42479160759495 19.959455952561445
117 39 0 24.418707990553482 31.98687725843347 15.65422637289911
118 39 1 25.42770611716593 32.29171915123767 14.812987943414738
119 39 0 23.322089595366325 32.18605223759158 13.378508435257022
120 40 0 21.753626869267805 43.176304858756545 24.440598954785813
121 40 1 22.871084737733238 42.85411519558974 24.35368423170659
122 40 0 23.466764008081938 41.9253268972402 25.17919487529924
123 41 0 33.5502420157549 27.150846160779533 10.458201246517612
124 41 1 32.268460455369414 29.29313742397204 11.376241157727469
125 41 0 32.96395797017329 27.057832857703193 11.180586404087052
126 42 0 23.51400284672188 46.040667715895175 30.865186444613457
127 42 1 23.734132473435203 47.04374374579485 30.236678621790716
128 42 0 24.80121642974597 47.12059232390024 30.751417313603888
129 43 0 7.0101388112204805 20.847366700814096 17.37276258454557
130 43 1 6.240053050379187 20.525302237900735 16.155079276266147
131 43 0 7.286784175326284 19.822826338389895 16.95913008611045
132 44 0 9.797357101310627 21.1488113859175 42.3749091963291
133 44 1 9.494433675194085 21.394266522491236 43.830007685626434
134 44 0 9.230121834325242 22.64479216336544 44.07176332857411
135 45 0 29.471135462283012 4.537114823831262 2.405011512510898
136 45 1 30.017643442700486 4.04890054047477 1.5723363951832554
137 45 0 29.892010972462693 5.361071572781244 1.518901919733328
138 46 0 3.593577815548435 8.911534136418414 28.32032323480326
139 46 1 3.350487378226544 9.18763794532679 29.574351565760878
140 46 0 3.680062074239685 11.128217634036346 30.25642431017934
141 47 0 42.70181174640317 7.757528235226722 38.75700843230191
142 47 1 44.248300668318 6.370412861817728 38.607914390958086
143 47 0 43.17460301656207 6.122176983248621 38.2387920565659
144 48 0 4.518195231195748 18.45323376464007 4.953223666117174
145 48 1 4.274710708492191 17.691456218306612 3.9444485925691426
146 48 0 5.574974063250421 17.71457539031361 4.410953095525755
147 49 0 16.11047377359279 21.434463269630758 38.03494214282661
148 49 1 15.414571435033073 20.726883109627963 39.17835363382446
149 49 0 16.474909187941314 21.5677834331059 39.62489028577311
150 50 0 8.534314259227267 46.768429308723626 12.820100305952948
151 50 1 8.110499950894525 45.93082605887128 13.278313451626191
152 50 0 9.363085515306706 45.19543805349053 14.09056097627832
153 51 0 20.398897168936752 34.44989892211942 12.73616767996339
154 51 1 19.119238959773096 35.210114935147615 12.700333720425002
155 51 0 17.164810803715994 37.85428561078964 17.6629982435315
156 52 0 46.604677898550484 29.95270957674402 41.180667215246956
157 52 1 46.8450351425149 30.927501050076895 41.96100919783506
158 52 0 46.91135048138662 31.831292403822534 41.372685394575825
159 53 0 8.069179817611962 17.180776096594084 9.905526931286378
160 53 1 6.892768300730023 16.1153132912798 9.623713952024943
161 53 0 7.293946214576776 15.3899540130352 10.564289192570815
162 54 0 16.041344991475594 31.975533962565162 31.32632689768532
163 54 1 15.728719239792628 31.098433259200053 30.378749169498388
164 54 0 15.487197202005028 28.052872871558726 30.64853748359631
165 55 0 11.616027844672633 26.44943509537398 17.629543120179395
166 55 1 11.18337169720005 27.397096334998118 17.83482562185563
167 55 0 11.74178483589086 27.2061514035703 18.879995411231114
168 56 0 6.290877708320144 15.419773832932252 23.95846397345389
169 56 1 5.871675062459348 14.225047983807857 23.33618035177423
170 56 0 5.644796252484592 14.062206239178783 24.373873154206283
171 57 0 14.642828861449045 15.476814266210217 34.317924877586464
172 57 1 14.189962859694614 14.163926032823479 34.30210643294299
173 57 0 14.960752402815372 15.072920321927235 33.360785684600486
174 58 0 13.997856230033694 28.814818611392454 44.56425011454501
175 58 1 13.738200809545106 28.92117158331732 46.37778669911847
176 58 0 12.517998845218056 28.39181137104174 44.917823748286324
177 59 0 16.63612039497063 13.427977988538027 30.37900792258619
178 59 1 14.022072914385246 10.52244355758965 29.70757145083869
179 59 0 14.244081978354247 10.720455005682993 30.68202696937399
180 60 0 25.768279645545984 45.5061789405864 5.830527693318449
181 60 1 26.647899333507706 44.761275371505164 5.9444177230206
182 60 0 24.41554672599574 42.39361173192528 9.019321809238255
183 61 0 17.431499392877825 18.659350194576245 36.92106011526957
184 61 1 15.625601650252555 17.383467944874155 35.96250299217623
185 61 0 15.083934957918254 17.738315614511173 34.857081056597735
186 62 0 10.184505224818166 48.14876217746215 41.57162673895872
187 62 1 9.053271996064923 48.12474090758112 41.97079370562043
188 62 0 9.696514961083812 47.41485646923682 41.19451107789098
189 63 0 44.76735197644073 7.339805677239318 12.431641472631448
190 63 1 44.56208624663908 6.435016353887497 11.22967717180762
191 63 0 43.69105361928075 7.628384737114962 11.127010506918959
192 64 0 38.148680347441186 12.454600675193923 30.659190022407245
193 64 1 41.06656659459445 10.545795609513876 31.37597737906577
194 64 0 40.77202923557952 9.498395410984799 31.900428935110803
195 65 0 5.487804167874523 41.02084139248925 33.563273799908394
196 65 1 5.421112569173492 42.19630969771117 34.54628131405023
197 65 0 6.264952888998006 41.38050952681914 34.34160350846589
198 66 0 22.039760414312855 21.668809490734997 45.785447952309895
199 66 1 22.266925022625013 20.496392078214836 46.59021814492851
200 66 0 21.44892990703247 19.933438818692885 45.990232699182016
201 67 0 16.858411644406743 4.581777925322346 11.782313397455802
202 67 1 17.437872087280116 3.1258882439792126 10.386781963496151
203 67 0 17.399031112179767 4.501457433746072 11.668059318409513
204 68 0 24.522822796346645 36.57432445233739 44.05943123110677
205 68 1 24.966956732777383 38.69360191652595 47.47701826471505
206 68 0 23.839949528184604 37.58541486679129 44.21683167510951
207 69 0 46.133084847408355 41.82343747929997 37.305652174428204
208 69 1 46.07602436118724 42.78399966652771 36.752054450954546
209 69 0 42.997578162599886 43.35363052255139 36.40000481692406
210 70 0 23.05064361608442 35.265302691245054 45.526753502023176
211 70 1 23.958552613280855 35.78169896352623 46.12606401088196
212 70 0 23.45155826730802 34.627033078202885 45.58942682128523
213 71 0 46.40561110946958 22.77535629446356 21.99430460393125
214 71 1 46.5004194010113 21.978634509224836 20.948742933336113
215 71 0 45.13312478663418 22.284186856692447 21.203775803724806
216 72 0 31.19839401976774 11.105356149766655 11.05046400318382
217 72 1 30.53085346821097 11.211045334097825 10.11483839179868
218 72 0 31.226066846650284 10.512016950551965 10.703870654484534
219 73 0 19.497363561599432 40.131775679932495 10.296815298938924
220 73 1 19.946978684899072 40.5736661461829 8.964808886864537
221 73 0 19.719925797386672 39.454248197923526 9.19388442349765
222 74 0 23.597186789980036 31.897804672016942 8.703685466735427
223 74 1 23.197783019500175 32.31218049708933 7.54747421536092
224 74 0 24.43026794466331 30.809787982253148 6.249532218037943
225 75 0 8.328037475623569 18.03117577360503 19.540035461701493
226 75 1 7.619198933106707 19.41489135293111 20.945801610944358
227 75 0 7.84336807173614 18.73582305896981 21.98182478329591
228 76 0 34.45890690194961 15.253166909481205 32.19089954408081
229 76 1 35.37773631615171 12.59579650480385 34.0074727995282
230 76 0 35.309038756300836 14.70995369422623 31.901002705118955
231 77 0 11.987681971284717 4.429048094224163 24.484633921295377
232 77 1 11.860330940874933 3.25443546727927 24.70231043169118
233 77 0 13.05171021327496 3.6671451554788974 24.196867355638112
234 78 0 5.713682670502855 11.921595800006504 5.279283128244664
235 78 1 5.962320881579395 12.836439486345713 4.6599483575893315
236 78 0 5.813721172111904 14.176284737567167 4.804524026166722
237 79 0 10.419187586139927 13.065818096875482 22.491251212879156
238 79 1 9.764675061313659 11.930313304144164 22.63456887676206
239 79 0 10.525477823138013 11.9676633025273 23.571487072936147
240 80 0 43.696615026989974 23.302270977232837 39.95185499370696
241 80 1 43.856976742826646 22.694790821697406 41.29981388950224
242 80 0 43.482694881131366 23.865291740624148 41.486595583654484
243 81 0 18.72567178887874 14.918902478294044 24.039267637312022
244 81 1 18.48613840454381 14.164568192336374 24.74934449617807
245 81 0 17.604781137055305 15.206939080050724 24.979449852324596
246 82 0 42.292035627966726 1.2792160616012969 9.171081866256124
247 82 1 43.27924128037199 1.292744982917874 9.669948376642335
248 82 0 40.53430667054372 1.930356775603424 9.25049444218723
249 83 0 20.184224456616356 26.760323828897217 37.70421907657571
250 83 1 20.769478958420358 25.86441793642373 36.41603261748197
251 83 0 23.407226920306517 27.669373047524736 33.56475306913717
252 84 0 20.599651444793285 35.882574733528365 13.844001954620019
253 84 1 22.371113778901634 35.6106876059419 10.118190031071022
254 84 0 20.762054411736607 36.25544498141721 14.59630897368268
255 85 0 45.549553113503265 38.971472651815766 30.93657047877314
256 85 1 44.900864091865365 38.03851863065777 31.496410927481637
257 85 0 44.00295448946379 37.13366432895746 30.761026516345748
258 86 0 25.831251529121023 35.89722415821686 40.42877639726633
259 86 1 24.910592039262365 36.66793952096837 41.15193782464855
260 86 0 23.84582610403632 36.01645760030477 41.32233177326709
261 87 0 36.3884806034875 26.394170617078185 15.609851639733275
262 87 1 45.70804007712725 45.713650931481624 31.302350669794205
263 87 0 27.640694887928742 22.564074095893265 24.476081034414133
264 88 0 41.85243547309485 23.244308129615117 14.118635997350154
265 88 1 43.17073440838614 20.767234467444215 13.51207648364893
266 88 0 42.17194218716027 20.35365633057777 12.7984370796415
267 89 0 39.86318248326965 33.80824639716044 44.644557927633336
268 89 1 39.41208535237224 34.76376333168724 45.633077340480774
269 89 0 38.29611781258367 35.39451953809894 45.44048191649366
270 90 0 28.972940774395504 18.616417838905345 27.37532436515845
271 90 1 39.84215329292693 10.53423355307445 15.096037072996321
272 90 0 39.02217148251416 9.285143568833085 13.25847231093986
273 91 0 17.958687355827458 7.136252231860024 8.145165254438202
274 91 1 17.848798369515716 6.142261359691849 8.78616970987654
275 91 0 19.444696230533726 6.3291979910786145 9.28221737022566
276 92 0 12.062696671166997 31.696249384662327 31.356116001571795
277 92 1 10.649807249431921 33.07533903796878 31.885656996196623
278 92 0 11.689605362825743 33.00884292574531 32.54317652386469
279 93 0 20.04605196213679 9.894279692087862 10.000133229907131
280 93 1 20.99666511645633 9.782563148901165 9.091113646909397
281 93 0 21.829384226762148 10.249712872868848 10.178071870879041
282 94 0 26.781987376429267 42.08537911557521 37.552289362672255
283 94 1 25.476546440459565 42.69672569791405 37.042683562585104
284 94 0 24.195797313047613 42.43244135461087 37.39894852669148
285 95 0 11.527532504298478 16.719342499424393 43.297133559275665
286 95 1 10.663110385555191 17.260499720046937 44.02375321949157
287 95 0 11.808966462710965 17.30758564626206 43.17257584116499
288 96 0 15.982772513924774 42.06538936066545 22.783191669883216
289 96 1 15.376149588617817 40.68910459631166 22.949267344727826
290 96 0 14.840539838538609 40.04948085728205 13.73983598830599
291 97 0 30.677350786311074 3.495596545241042 7.078429291344186
292 97 1 31.422748466478318 2.979856278965569 5.936689004950281
293 97 0 31.563687074308543 4.299105515981948 6.679810244605657
294 98 0 18.37831370531777 38.83644314660652 36.4891650264709
295 98 1 17.28553335001118 38.81028424131659 36.17857504525571
296 98 0 16.639076742785342 39.122002691833686 35.21971214236433
297 99 0 42.46968972630574 9.55180758674403 45.89333736624093
298 99 1 43.68792015709199 8.380711625079153 46.52667675252667
299 99 0 43.07545523323254 9.676142500335759 45.19271642854813
300 100 0 6.331051705054514 40.30218221768656 41.199467363174186
301 100 1 5.174494186642812 40.90839102328379 42.00424170401298
302 100 0 4.931455564244773 40.118189005945446 40.911573751733656
303 101 0 45.943901940207375 34.25008987616754 35.19524111068851
304 101 1 47.94203249566911 38.71837299089586 41.973473151763784
305 101 0 46.959139834943535 34.05524559138643 36.14659553131648
306 102 0 27.30796779820594 24.01276266822658 43.29884341028452
307 102 1 26.597581644862146 24.700528790385807 43.95208280608552
308 102 0 26.591183586974243 25.81528273386813 43.54352795718327
309 103 0 39.58542608117663 6.254892020577742 17.110868741058635
310 103 1 40.63801873328738 5.243285702584434 17.477506010420125
311 103 0 39.53149316774833 5.634103469197688 18.21377888248855
312 104 0 21.239533998645975 10.898903647452283 5.757029169497988
313 104 1 46.078911534174146 13.470023917830067 10.203765827117211
314 104 0 19.653433104053946 28.59733067475662 32.32619533881092
315 105 0 34.73729004199805 38.77686952445816 11.671754787287549
316 105 1 35.94621696640706 38.745329087096316 11.39134565665296
317 105 0 36.566136992101356 37.517863549381595 11.490882123324651
318 106 0 22.48860952893315 37.59411558849956 39.41786787560543
319 106 1 23.576558838373682 39.382361757888546 40.469022480638074
320 106 0 23.358438096391783 39.578086590032356 39.246379476345204
321 107 0 26.09284101300796 34.87278618898572 6.770177290937443
322 107 1 26.399935460130482 35.96195753523793 6.276464878987765
323 107 0 27.561523047860796 36.15108478843717 6.362163433859466
324 108 0 17.58240518394132 21.65848212098217 22.850414648929082
325 108 1 23.09953828187016 14.625676180495297 32.19345817469751
326 108 0 16.49736886218519 21.85228336299969 22.950232165980168
327 109 0 44.67673126432643 25.791317411647498 41.06493545005751
328 109 1 44.71425053138403 24.90398069147313 41.7945915306309
329 109 0 43.76180323819199 24.588298413028543 40.99930096092681
330 110 0 21.77349193346883 34.82890547965458 4.028606767996585
331 110 1 22.740684638712676 35.70822870755689 3.6999136990408674
332 110 0 23.061882946999976 36.67816861710467 4.265723836104977
