ITEM: TIMESTEP
115
ITEM: NUMBER OF ATOMS
66
ITEM: BOX BOUNDS pp pp pp
0 50.0
0 50.0
0 50.0
ITEM: ATOMS id mol type x y z
0 0 0 27.14582224548362 23.828696501357115 32.359643945711014
1 0 1 26.959839333113088 23.23081387171704 33.05389362049511
2 0 0 26.72031901678981 23.75347710081435 33.81677647500441
3 1 0 26.499257059906974 44.010652762819234 7.582898854604173
4 1 1 26.575246852275335 43.40979750507011 6.885606326444804
5 1 0 26.258450485215423 42.505302091020155 7.149400182085944
6 2 0 38.24176793262016 25.317579992549636 38.3882236443492
7 2 1 38.035436521403454 24.6540698900427 37.8060141347141
8 2 0 37.36088827391723 24.90076752201114 37.21440107769388
9 3 0 17.17298545443859 34.77825697635429 24.613390796520534
10 3 1 16.222239648203452 34.77287922470996 24.139976121083407
11 3 0 15.762879670013495 33.909505952700435 23.928798738590704
12 4 0 33.82266294330714 18.419800723064917 24.584828260145056
13 4 1 33.94405177025557 17.87788636231883 23.840852459845582
14 4 0 34.02180824891331 17.003921600628168 24.111692325251276
15 5 0 17.588188132431497 18.920448985139846 25.5465196645525
16 5 1 17.070334337186594 19.4801398493431 26.03343479994734
17 5 0 17.08907143375397 20.300388445099017 25.625266585372064
18 6 0 12.863242810774697 21.594373769423168 15.21535487541375
19 6 1 12.285487989830816 21.512185087079033 14.459178066976406
20 6 0 11.594223604803627 20.84287540078487 14.447656836687091
21 7 0 36.60941050977618 6.992595461861172 39.0941479974804
22 7 1 37.185617630238205 7.552527366916073 39.59720905724877
23 7 0 36.93129061441858 8.501936435527227 39.5741720501844
24 8 0 5.967788090760289 14.975528061678046 8.716879697637507
25 8 1 5.234011461321994 14.607434381350412 8.245295112563836
26 8 0 5.282677423208678 13.727786548815441 8.377359052059996
27 9 0 26.508209677911307 12.718162397257123 27.949803191850087
28 9 1 26.63370379088065 13.592010154483974 27.72022170097396
29 9 0 26.038332847645915 14.113964712393365 28.215266813475104
30 10 0 33.78566644439333 15.41649433969058 10.556720209124569
31 10 1 34.38991936493497 14.757771388213836 10.772168400055625
32 10 0 34.24043373494225 14.392709540508232 11.610980539797394
33 11 0 33.4217946352102 46.18822574008807 13.178106630484265
34 11 1 34.32738032263519 46.33156223172368 13.368274446339361
35 11 0 34.542196120936765 45.752429850439896 14.047486998799714
36 12 0 25.043658361203534 48.31226702142289 37.15461003760899
37 12 1 25.341916324684103 47.69098519440153 37.786099487325195
38 12 0 25.247756807251534 46.73334420168379 37.504871567867
39 13 0 35.42013868836412 26.759448546813154 45.89323461458428
40 13 1 35.6608993799769 25.895778561917876 46.15980140011696
41 13 0 35.56154795570962 25.340324711249735 45.42249108226745
42 14 0 12.56532377080994 29.29966854317562 23.04852973582755
43 14 1 13.343401690061306 29.174433811445123 22.44817457621664
44 14 0 13.671908380275697 28.271159963161566 22.25620298265585
45 15 0 31.746607497156067 22.43196517916221 43.36319615168317
46 15 1 31.686252122732867 21.954694443876093 44.169452024374905
47 15 0 30.778759438808528 21.842617212836227 44.3814388672726
48 16 0 44.21189372989559 37.12801184719878 44.6418407711302
49 16 1 43.60481661339222 36.75055154217277 45.29717089484885
50 16 0 42.64782279570211 36.64987864494316 45.038364387438214
51 17 0 23.98302348273477 39.08580129405063 42.96585768769471
52 17 1 23.617960028438965 39.92016203750027 42.96153429708716
53 17 0 23.064663843130987 39.96216342572405 42.25098328260334
54 18 0 39.89668719775397 4.459484368697278 18.734690653305066
55 18 1 40.53601729556078 3.777227785910864 18.600196855694378
56 18 0 40.80777285963659 3.5279473774734846 19.378282585427876
57 19 0 37.179912047961345 12.346797008196951 15.196141368089252
58 19 1 38.03082634352361 12.427788862908267 15.53079984777176
59 19 0 38.456414669916356 13.142544244736994 15.169285315973735
60 20 0 11.922498190795801 44.30010073696989 30.63021023436809
61 20 1 12.53453011981612 44.96140947044642 30.87414591223918
62 20 0 13.293875338820367 44.51925229970412 31.216036006253987
63 21 0 9.776173619866043 44.307845400222575 33.975413151087245
64 21 1 10.491346854613159 43.65537145583828 34.16208013295017
65 21 0 11.022905617420392 43.70636367978829 35.01631225587909
