ITEM: TIMESTEP
116
ITEM: NUMBER OF ATOMS
66
ITEM: BOX BOUNDS pp pp pp
0 50.0
0 50.0
0 50.0
ITEM: ATOMS id mol type x y z
0 0 0 27.147905747493684 23.873719985343385 32.34797406055053
1 0 1 26.959843740785686 23.2257518422445 33.0543814323047
2 0 0 26.718099770523573 23.789563149102033 33.82066770736227
3 1 0 26.46743425878932 43.99045317841334 7.664171567395004
4 1 1 26.577987564542017 43.408874011607736 6.876518882608256
5 1 0 26.24631763359783 42.54024018854611 7.21343453414149
6 2 0 38.25566867667765 25.396467888246292 38.44599855485968
7 2 1 38.03849757851243 24.646785565018074 37.805291798471096
8 2 0 37.29837912908585 24.938458846479467 37.16761162783847
9 3 0 17.062281982791912 34.775880051782174 24.558304141063623
10 3 1 16.227396630190345 34.7706810199628 24.14259483226557
11 3 0 15.792193999337407 33.94917621734411 23.942596249991563
12 4 0 33.81431966409011 18.45228174170168 24.642782419796475
13 4 1 33.94425278698073 17.880013320729702 23.835500295414437
14 4 0 34.02714524480948 16.93759732724918 24.139332906615948
15 5 0 17.644887863196793 18.867558905531354 25.489306316285667
16 5 1 17.0662776950458 19.47864293788637 26.039976223296883
17 5 0 17.0972115082606 20.377142553222004 25.577859720497877
18 6 0 12.866358189059731 21.60780978165243 15.199103549877044
19 6 1 12.284778193979735 21.510123677713285 14.461307533954379
20 6 0 11.602476994295701 20.862398540994697 14.429753828485929
21 7 0 36.54440052328104 7.043819420713688 39.056416792627616
22 7 1 37.19380157669912 7.5506429242399795 39.6027184118089
23 7 0 36.86536875441996 8.480834696923418 39.523763321432725
24 8 0 6.020801744011676 14.986521573626325 8.752689151381276
25 8 1 5.229899667071945 14.612674695238056 8.241837465280287
26 8 0 5.295402818472291 13.632899990312731 8.39682719648404
27 9 0 26.4931265037833 12.648450587168186 27.972900706349424
28 9 1 26.63735397461511 13.594598128696338 27.716442942295036
29 9 0 25.994839712121784 14.141989713035489 28.252715563337507
30 10 0 33.725767069139955 15.476062834201056 10.545035428931545
31 10 1 34.394891158014815 14.755685308718855 10.768145098788695
32 10 0 34.21921828116229 14.367518464019557 11.68495721417581
33 11 0 33.3638729700966 46.16585313875469 13.17960276308793
34 11 1 34.33099996385037 46.336125627187585 13.36491293375356
35 11 0 34.542311435693506 45.70182996426126 14.099861375855195
36 12 0 25.01029572536945 48.26834489195385 37.07592660699533
37 12 1 25.345998417417942 47.690454387163825 37.795288958665104
38 12 0 25.21588087253861 46.785986838436145 37.43639331512046
39 13 0 35.40519846822065 26.80263465733708 45.869429170332594
40 13 1 35.66254578578718 25.894805606550964 46.16442692143098
41 13 0 35.552899933838226 25.315582389014132 45.374142000099965
42 14 0 12.603684993139053 29.19588888363257 23.025970129194274
43 14 1 13.34624987932192 29.180595979548396 22.44539568952119
44 14 0 13.586831394926927 28.274363372714237 22.322604348760088
45 15 0 31.74332591323759 22.452218977105048 43.32901887415661
46 15 1 31.68876313257769 21.953365595817296 44.171253049353176
47 15 0 30.738813394837624 21.840701891120325 44.38563068478203
48 16 0 44.13430410236259 37.13436968189582 44.582913776597074
49 16 1 43.606537539440694 36.74762176449806 45.3057715119904
50 16 0 42.69790979537083 36.69043837318758 44.95968916965371
51 17 0 24.017521342220856 38.992159332663775 42.95774988852358
52 17 1 23.6196705246902 39.92622837291066 42.967319213233274
53 17 0 23.002755874048233 39.9585364273667 42.16669177080772
54 18 0 39.83577043124524 4.525414042357092 18.76662322029284
55 18 1 40.53720240953582 3.775492017133264 18.59050069606799
56 18 0 40.84981093357 3.489530337449518 19.5015744559037
57 19 0 37.09440012909388 12.351166027619648 15.152717135514122
58 19 1 38.03401786401016 12.422352091237071 15.536585559843632
59 19 0 38.49241469273127 13.224336613204148 15.121980688194686
60 20 0 11.90314408417778 44.259238505852224 30.622103726307618
61 20 1 12.53502755782851 44.96639611291903 30.8725932511678
62 20 0 13.318801033167599 44.4884416870781 31.227142558893895
63 21 0 9.782014488151164 44.246300593886374 33.90548165630654
64 21 1 10.48919370464538 43.6636445988766 34.17284119647904
65 21 0 11.037918820919016 43.62748265254261 34.935930744136904
