ITEM: TIMESTEP
117
ITEM: NUMBER OF ATOMS
66
ITEM: BOX BOUNDS pp pp pp
0 50.0
0 50.0
0 50.0
ITEM: ATOMS id mol type x y z
0 0 0 27.152405989540597 23.910007972627366 32.32895717628094
1 0 1 26.95967982754256 23.222072887639307 33.05529874936424
2 0 0 26.71613599505455 23.81229305502283 33.82504230974864
3 1 0 26.43681075935011 43.97206327516829 7.743191485554752
4 1 1 26.580199099253715 43.40674306605215 6.86810007690746
5 1 0 26.241418885915785 42.59267584851067 7.268993952562568
6 2 0 38.2651704069509 25.473314350421653 38.49792699184939
7 2 1 38.04110197555446 24.639613363477675 37.80412029193986
8 2 0 37.2476937238577 24.976407255093758 37.133672010456515
9 3 0 16.93770080935824 34.73522140697197 24.497086593132952
10 3 1 16.231388900823234 34.77172401142018 24.14456910467475
11 3 0 15.854381435577753 33.975949530371274 23.97303138942491
12 4 0 33.80675412405266 18.482960726382984 24.693624037992397
13 4 1 33.944401291652625 17.882170952940328 23.830813104775046
14 4 0 34.032612057330695 16.87264465053681 24.16343364961473
15 5 0 17.69764990499784 18.81049387039829 25.439711902760493
16 5 1 17.062793086425852 19.47771882948608 26.04542455793353
17 5 0 17.100115414273713 20.448878999291157 25.540336999299964
18 6 0 12.856583992511037 21.59267136676068 15.207814527732822
19 6 1 12.284599165698506 21.510986809081796 14.459671928351078
20 6 0 11.61513153799643 20.863695943212782 14.447103094056056
21 7 0 36.48349814077843 7.101931791149929 39.02275358761572
22 7 1 37.20152864210717 7.549463269994115 39.60802006403705
23 7 0 36.802653011150205 8.441558673336575 39.47261295370792
24 8 0 6.056194695013789 15.003285470061623 8.775545159696438
25 8 1 5.2276745971732 14.617972262930287 8.239691221274137
26 8 0 5.295545394828799 13.531311581727094 8.408251972892488
27 9 0 26.482366226703846 12.57661950503169 27.992190661354773
28 9 1 26.640245202580335 13.597345766344704 27.713357429379105
29 9 0 25.959111350403116 14.169489789640094 28.28290756430632
30 10 0 33.668557979179205 15.528360845266674 10.541629112666808
31 10 1 34.399896025396544 14.753498386428 10.764191264267044
32 10 0 34.19428135544557 14.351531985446439 11.748876871600281
33 11 0 33.3155647103283 46.153970934810054 13.173843270747469
34 11 1 34.33326855361994 46.339660907636045 13.362111513401247
35 11 0 34.55446477516451 45.65720294063567 14.15055758272244
36 12 0 24.976580678737232 48.21890519481924 36.99605306207286
37 12 1 25.350092525063605 47.68898382915093 37.80443293300316
38 12 0 25.184189139126882 46.859256069078384 37.36979137723144
39 13 0 35.39315671964468 26.84441236233361 45.85496744006737
40 13 1 35.66388441732397 25.894339922462922 46.16811350844393
41 13 0 35.547160050370856 25.285053588694392 45.33206612974394
42 14 0 12.64251551989522 29.070855574649936 23.004573084719006
43 14 1 13.350011052037765 29.18850670700818 22.441742510424806
44 14 0 13.486310241353769 28.27020808120471 22.401632841051043
45 15 0 31.744495847599403 22.47111742742519 43.29697080545076
46 15 1 31.690735386896378 21.95219157171495 44.17268730790007
47 15 0 30.702058405586325 21.836728334511765 44.39318714355862
48 16 0 44.040127761221946 37.13809620878839 44.52181792312049
49 16 1 43.608139819256834 36.744427241047056 45.31500114586151
50 16 0 42.766492175275346 36.737878533751115 44.87312100011631
51 17 0 24.053574786495343 38.90945969074362 42.958011023472906
52 17 1 23.621235312764107 39.93099618490171 42.972169292902954
53 17 0 22.94161012028726 39.96467688625159 42.089039829020464
54 18 0 39.79375471890221 4.570766497884701 18.786292376897276
55 18 1 40.536572267095394 3.775703048283509 18.58145279863779
56 18 0 40.90201874356076 3.44045833235952 19.626785113220457
57 19 0 37.02058400162378 12.357590751392008 15.113160022278963
58 19 1 38.036765404988465 12.41712689173896 15.542006266733216
59 19 0 38.52432017980385 13.300423129675758 15.077239612375989
60 20 0 11.877727460612121 44.226763550560754 30.610762201587445
61 20 1 12.53611778500017 44.97029422041206 30.87082018940099
62 20 0 13.344621332416631 44.469256648253754 31.23804105389418
63 21 0 9.794574501826972 44.209636083541824 33.87980646853669
64 21 1 10.487897020428013 43.667675273982624 34.18013443323144
65 21 0 11.028171627026387 43.58902310948337 34.87375453520425
