ITEM: TIMESTEP
118
ITEM: NUMBER OF ATOMS
66
ITEM: BOX BOUNDS pp pp pp
0 50.0
0 50.0
0 50.0
ITEM: ATOMS id mol type x y z
0 0 0 27.157694403248794 23.925638340913608 32.30934802947326
1 0 1 26.959339794792758 23.221078671358445 33.05653054666066
2 0 0 26.716124087108508 23.81286454948987 33.82500895529912
3 1 0 26.407959881719528 43.93914693228763 7.805538752188259
4 1 1 26.581831755510954 43.40415897094899 6.861066563102049
5 1 0 26.243885123877504 42.66684371336663 7.3189514849390305
6 2 0 38.26262189206797 25.523515299195868 38.52239598990954
7 2 1 38.0423625319709 24.634439799272783 37.802519053490556
8 2 0 37.230999884789625 25.0090588106404 37.13338495111151
9 3 0 16.828496719205678 34.625489688454714 24.444935834250256
10 3 1 16.231429569770388 34.7793278598795 24.14444806322489
11 3 0 15.965757622723057 33.96935532613188 24.028653415337025
12 4 0 33.802817448811545 18.500348054338577 24.718195190410306
13 4 1 33.94443705522848 17.883732968837155 23.828575811136833
14 4 0 34.036504580431114 16.830738079431907 24.174558870085793
15 5 0 17.727348207119444 18.76469558846953 25.418146740671204
16 5 1 17.061286250839217 19.477982466364697 26.047461519817986
17 5 0 17.09435932621357 20.490241429636097 25.529417814075146
18 6 0 12.825680390011666 21.53330555733721 15.253355432678488
19 6 1 12.285375321081009 21.516436757115578 14.452313239777883
20 6 0 11.633646921369781 20.835803726989198 14.519092833786923
21 7 0 36.43327335593996 7.182927651247055 39.00049290123207
22 7 1 37.20866202546981 7.548576262279369 39.612948476461675
23 7 0 36.7387720701942 8.374682356488957 39.41604353015955
24 8 0 6.054676845711496 15.022810828050176 8.772306376093672
25 8 1 5.229079524022112 14.621669284957344 8.240258273662745
26 8 0 5.2744595287572364 13.452513105788961 8.402305352720717
27 9 0 26.4822611383458 12.524533468861748 27.99891617378012
28 9 1 26.64104492386531 13.599468424321978 27.712315854005627
29 9 0 25.945984891897883 14.186911092222248 28.29306382674447
30 10 0 33.63248364141314 15.552079856578683 10.555063817809627
31 10 1 34.4035455328327 14.751787201430659 10.76125566512581
32 10 0 34.16802660511367 14.357706324793343 11.777180289228234
33 11 0 33.29705508775817 46.15981505238339 13.160890954795018
34 11 1 34.332898073062736 46.34065481067455 13.360958442160046
35 11 0 34.579173411275086 45.63556158328173 14.182176055790823
36 12 0 24.94652713428428 48.14526105208582 36.92275258161937
37 12 1 25.354196219095414 47.687598635485294 37.813582437244555
38 12 0 25.148771966843917 46.95563568056344 37.2963724939565
39 13 0 35.38928230989169 26.870824098376076 45.858916404929396
40 13 1 35.66451844080327 25.89497354991494 46.16934142243528
41 13 0 35.54781228945174 25.255733475119676 45.31313018081042
42 14 0 12.672947356133255 28.90884183070831 22.992392285414905
43 14 1 13.355808838102593 29.199763136230782 22.43613145502087
44 14 0 13.360235309805818 28.247136603428793 22.50203027253496
45 15 0 31.752011436505274 22.481861614565613 43.27833457160807
46 15 1 31.69106125764636 21.951431035709867 44.17302369326532
47 15 0 30.681659416458153 21.83080591415835 44.403503202643265
48 16 0 43.91367533021953 37.13715205982887 44.455327729204626
49 16 1 43.6103910533683 36.740729849734635 45.325905723624835
50 16 0 42.85700581015483 36.79808435264766 44.76515721470989
51 17 0 24.080724338662165 38.869524000710044 42.971083662719316
52 17 1 23.622078996105135 39.93219669530776 42.97403118326381
53 17 0 22.90085557010023 39.984882330569505 42.04657768341997
54 18 0 39.793495909736066 4.571061565629844 18.78722564157764
55 18 1 40.53318632520415 3.7789978761001985 18.576167797384286
56 18 0 40.956661751061986 3.386792703262988 19.710627917975856
57 19 0 36.98919557456467 12.369096015335213 15.089497451376372
58 19 1 38.03817743338159 12.413576434070766 15.545520543571016
59 19 0 38.53701858727218 13.343646617171675 15.0493056400126
60 20 0 11.852898383956116 44.217199241571315 30.597606700368225
61 20 1 12.538624961736806 44.971951217105 30.867830066023835
62 20 0 13.36328640504076 44.47269052987417 31.244227053603726
63 21 0 9.808020627021703 44.22171348443691 33.92484679615795
64 21 1 10.487276947882512 43.663836728846135 34.18136372593126
65 21 0 10.990530545427255 43.6181265278511 34.863911027426525
