ITEM: TIMESTEP
120
ITEM: NUMBER OF ATOMS
66
ITEM: BOX BOUNDS pp pp pp
0 50.0
0 50.0
0 50.0
ITEM: ATOMS id mol type x y z
0 0 0 27.157122628517836 23.847863321100796 32.319163347799474
1 0 1 26.959042065523935 23.230289983267927 33.05653573228361
2 0 0 26.721013314108717 23.744059526606055 33.81529094220558
3 1 0 26.41742403216331 43.878881818204434 7.729911157739726
4 1 1 26.580624149586388 43.40612558565511 6.866117496270381
5 1 0 26.2530295693692 42.69538727201285 7.313134595756927
6 2 0 38.21977043012953 25.410399528485332 38.41468309095238
7 2 1 38.03810077599155 24.642451660611933 37.80189011564796
8 2 0 37.34455997151733 24.994190109730564 37.2472494703479
9 3 0 16.958447585915927 34.44769916954859 24.513266791261827
10 3 1 16.216308178243793 34.79861391623292 24.13656161872244
11 3 0 16.085428609817612 33.85308439310839 24.0906811136765
12 4 0 33.81643575870781 18.449173707495103 24.62167257855821
13 4 1 33.94411868243131 17.880820716427497 23.83781492804198
14 4 0 34.02941684175243 16.929795335826938 24.122982660918627
15 5 0 17.633365208051945 18.81973594760519 25.52811375690154
16 5 1 17.068924068119752 19.4816964968352 26.03468082873584
17 5 0 17.065682467158183 20.375184481579257 25.62423304821518
18 6 0 12.744234997962145 21.39489677564757 15.345138568531507
19 6 1 12.288359434320553 21.52974400081533 14.436007427718867
20 6 0 11.667428864736987 20.761136508301888 14.687635866851524
21 7 0 36.4703000284585 7.256744643682664 39.03911326937837
22 7 1 37.207307048034224 7.547586156015868 39.611822422688896
23 7 0 36.72350231880125 8.316509613340813 39.3955066400833
24 8 0 5.945567265310777 15.035148444878214 8.694701650517228
25 8 1 5.240479916438599 14.613109729603167 8.249170771133134
26 8 0 5.200823067018643 13.576799826684502 8.337003874587182
27 9 0 26.523028137274377 12.619342732726048 27.948384494610966
28 9 1 26.633574092725578 13.595754128665352 27.71978823263893
29 9 0 26.023565012124724 14.149620174343454 28.22462661057621
30 10 0 33.71562866055093 15.444747439479041 10.612531028309238
31 10 1 34.39785477450454 14.75409012004643 10.764729729284994
32 10 0 34.16522491844383 14.435031667350483 11.649897365882332
33 11 0 33.397589814093884 46.2178011421068 13.138515477662368
34 11 1 34.32440493877941 46.33138927658616 13.367402737555073
35 11 0 34.61526692020839 45.72611025313758 14.102033172221528
36 12 0 24.965499651332316 48.057580520940675 36.959480851815144
37 12 1 25.354238021191804 47.69130208092051 37.81381397408069
38 12 0 25.129643147090164 46.98561831009892 37.2550491905394
39 13 0 35.41868505757845 26.811722030515792 45.9220114305171
40 13 1 35.66239494819936 25.89897103199821 46.16052137101511
41 13 0 35.57121412347889 25.270540876062018 45.40383062326606
42 14 0 12.637875073333326 28.779528126816587 23.02890535298505
43 14 1 13.363032337737499 29.2110211199322 22.42897799955478
44 14 0 13.271900472625907 28.182768155587805 22.575727124606175
45 15 0 31.771867193766305 22.44918862993492 43.33185262336031
46 15 1 31.684505962803904 21.952552120558384 44.16877284651617
47 15 0 30.745826894658098 21.82555782073291 44.41000739396175
48 16 0 43.81307917682267 37.12549980930279 44.4309290383534
49 16 1 43.614177131782526 36.73886056690078 45.33289459896977
50 16 0 42.897244935608036 36.83992645177991 44.677786308797856
51 17 0 24.043508832391154 39.02826973791016 43.013140258947296
52 17 1 23.619024636505763 39.919299471579 42.96268279924768
53 17 0 22.986652238983126 40.03107176178602 42.187185476011635
54 18 0 39.91398323846713 4.441388252677936 18.740754320259995
55 18 1 40.52639818765936 3.7868801405219688 18.592113646112086
56 18 0 40.94535365536395 3.388572017931699 19.50255352002458
57 19 0 37.14246943338468 12.38751039527559 15.146929128443496
58 19 1 38.033857323995356 12.42023074836107 15.53846293280894
59 19 0 38.46348124552804 13.21310962284128 15.117395169701153
60 20 0 11.866618275457421 44.30464338807169 30.592919398203097
61 20 1 12.545163765164508 44.96514928277201 30.859999853981975
62 20 0 13.337243635456893 44.549505815244345 31.22518263427916
63 21 0 9.81690283777325 44.369156641902826 34.15972537994965
64 21 1 10.486658441096804 43.63778785547511 34.165394776079005
65 21 0 10.898796791377034 43.832433054507774 35.033697763928586
