ITEM: TIMESTEP
122
ITEM: NUMBER OF ATOMS
333
ITEM: BOX BOUNDS pp pp pp
0 50.0
0 50.0
0 50.0
ITEM: ATOMS id mol type x y z
0 0 0 27.104892074839892 24.044851224120055 32.465705613902266
1 0 1 26.95654226272283 23.202961697713036 33.050240105803574
2 0 0 26.704062823164477 24.025931790910043 33.83072651390523
3 1 0 24.146801177302734 39.306893224408135 13.5870419129214
4 1 1 18.93964074146289 33.33743021431354 34.80533449333451
5 1 0 24.342524635030713 38.89369330787185 14.803519087426977
6 2 0 39.43775798493112 24.68441978835912 36.85791103021551
7 2 1 38.39348617563357 24.40668929289376 37.324650010939294
8 2 0 37.366883224939556 24.59442953581895 36.4765865786846
9 3 0 28.061500756760612 4.215396463994023 38.43521787272399
10 3 1 28.69576634204792 3.278595119163542 39.60407487917174
11 3 0 28.169022103050754 4.606325992518484 39.122895920565796
12 4 0 33.79255890028142 18.549859921464257 24.781268842521413
13 4 1 33.94583894997893 17.877344092703975 23.821226610649784
14 4 0 34.03186924238972 16.8478366699102 24.218724536522963
15 5 0 23.121415240007916 26.36488631098132 43.56848294553765
16 5 1 23.149367502140723 27.168710739822806 45.04381307585979
17 5 0 22.793615064161877 27.394283373733508 43.47377161008886
18 6 0 44.31950617516315 34.86031349734046 9.696650895666773
19 6 1 45.11805334801943 37.30034494669868 9.553532559562493
20 6 0 44.032635716521796 36.99223378991276 10.193049571471434
21 7 0 36.28919819520884 7.274748659328044 38.913197606482946
22 7 1 37.23067503878082 7.524549250231063 39.62471978424826
23 7 0 36.529243184531815 8.666735023589993 39.3158325647621
24 8 0 3.6330339696936176 15.964487905675911 11.25959508338529
25 8 1 3.6150103752823304 15.260402418224754 9.869556241212345
26 8 0 4.337337295838228 14.413113451604172 9.760694735548883
27 9 0 21.672329709010278 23.691143094114658 18.127174020250656
28 9 1 33.85080406709429 14.079844581484044 6.969676924022774
29 9 0 26.52523880304243 11.042823522115604 12.224668002857666
30 10 0 34.82539431054492 15.922646081168349 13.947689196683323
31 10 1 33.91472670934404 15.9026437329835 11.426610396719722
32 10 0 32.68627828575143 16.65104415181762 11.0522162448244
33 11 0 33.15742660337036 46.03598197981869 13.236768344149903
34 11 1 34.353397049859225 46.35202338364545 13.356668581415972
35 11 0 34.38698138614674 45.57529662001904 14.172741163385327
36 12 0 40.60322408421931 38.419151640000784 11.389155980444952
37 12 1 41.731992493856126 37.97431911196037 11.1411412060708
38 12 0 41.8682681783701 37.291397320439934 12.212608695822087
39 13 0 35.354874064567866 26.883700059430076 45.742262568907925
40 13 1 35.66354215914419 25.881090803400927 46.17690288984231
41 13 0 35.510000763450975 25.351251501473453 45.24021157489574
42 14 0 12.60151039061687 28.738849749491802 23.059752490081987
43 14 1 13.371777253238369 29.217896006736275 22.429482194159654
44 14 0 13.247301510572472 28.180860370299644 22.594110828660835
45 15 0 29.00433730422859 21.765874686867758 42.70541380793948
46 15 1 30.452514839884405 21.81240164868721 43.58689461394254
47 15 0 29.842433884686265 21.816394496049057 44.35793233550358
48 16 0 43.75747455240571 36.00576731830941 44.024114139063215
49 16 1 43.568721967022235 36.1037621505356 45.23479970617369
50 16 0 42.51417624994361 36.32911482699983 44.432413798030225
51 17 0 44.14618836034654 22.475504762234323 25.510210027922216
52 17 1 44.55297530766259 23.271245808707768 24.74669545419708
53 17 0 43.33044658079994 23.752414446530352 24.557610834195962
54 18 0 43.82543601736308 13.958925657541268 18.837993708964127
55 18 1 44.213993036178955 13.781354993584413 17.64757647895283
56 18 0 43.80679380824044 12.610207675639979 17.94887143237181
57 19 0 36.835709519695286 12.237164974536965 15.118223111725849
58 19 1 38.047524128761935 12.415919579221145 15.538845243391407
59 19 0 38.580674413698354 13.382424672754697 15.038860026743045
60 20 0 12.374449662464155 44.231118357486764 30.750809438359873
61 20 1 12.909554867818983 45.179828066449765 30.942245202837128
62 20 0 14.181813171074651 45.13590573559882 31.210838400042082
63 21 0 10.395392677322938 43.15931054308973 33.24555985736992
64 21 1 10.449818736195509 43.81968018535708 34.2119312854621
65 21 0 11.006893143793112 42.813772968506015 33.73303709482647
66 22 0 29.66155161811009 18.676906753616446 9.574195986307114
67 22 1 30.646651863099656 18.29995662527413 9.171951585963361
68 22 0 30.054059469723153 17.73119945502172 10.185388753883855
69 23 0 45.38162872656788 11.979726517707643 34.48756148308056
70 23 1 46.10742976504393 11.173400896958633 34.0400451244356
71 23 0 45.02473322588337 10.623623806750162 34.09148786798667
72 24 0 37.024161772891986 30.683510100068766 40.76397147153192
73 24 1 37.781794062577916 31.473124604745145 40.83543409110882
74 24 0 36.90159756252598 31.65412473118171 39.48283137633438
75 25 0 46.24878165470818 35.47595902361049 11.686513966686855
76 25 1 45.35993954765414 35.875019424135374 11.992253732377156
77 25 0 44.19513906252943 35.513929191729076 11.61230609156103
78 26 0 23.45329100914815 13.714630991883322 28.037226810535238
79 26 1 24.30245656319578 13.19443607479998 28.636951403192974
80 26 0 25.362250166789686 12.832210940909697 28.41936306868989
81 27 0 25.35593666097439 12.010953185281053 11.049154845899812
82 27 1 25.91031329267952 10.982382933097313 11.222098731432096
83 27 0 25.202218042022587 10.900504242283487 12.796428312376461
84 28 0 10.23273879563248 25.07861891915062 26.030311821342845
85 28 1 9.199505774755528 26.045074850551753 27.2843458278199
86 28 0 10.35276652700369 25.99015094499108 27.193376865243316
87 29 0 30.89047573235493 34.43883237467338 17.094176213762058
88 29 1 31.662061064678458 35.18289599322169 16.263688203008865
89 29 0 31.840107959344216 34.035677415319185 16.32032663216654
90 30 0 48.13276924628866 15.593887040625443 43.95307452361054
91 30 1 48.06871960915564 14.850298298724145 44.950423513747
92 30 0 47.968341618046594 15.948019513216664 44.726334520310886
93 31 0 28.485675547516475 4.019645991530005 16.876118334110476
94 31 1 29.344938067686723 4.114373913416657 17.629113594418236
95 31 0 29.196725382940507 5.452329134390239 18.031164147709436
96 32 0 9.666804826499842 38.91708743426605 10.375210513617892
97 32 1 8.811372861502592 39.001725623474414 9.713481033712952
98 32 0 9.307068426211389 37.9441697333897 9.409296041979628
99 33 0 43.51454913882658 38.17813070216535 20.976958798759913
100 33 1 43.309576811576534 37.46100580924905 20.05353022477324
101 33 0 42.542858103149065 36.52458548062633 20.878098308116865
102 34 0 1.4455796978710644 33.88481478320662 11.14151262561932
103 34 1 1.0843381637910015 34.749104280311634 10.332232936901645
104 34 0 0.9479509902431922 33.74620919550035 10.982573059173522
105 35 0 35.173777395860945 23.92946794201767 39.91761246681439
106 35 1 35.736705429888225 23.49455944631272 40.92295691970521
107 35 0 35.151496750482984 23.046097769248433 39.75012159091395
108 36 0 36.27509112395481 45.32094492589446 45.45431008080119
109 36 1 36.8951439887441 46.40335964871052 45.838407849717825
110 36 0 36.29610423859816 46.100985035188856 44.54818279542501
111 37 0 16.319381800480173 21.578870649839878 30.1362998308005
112 37 1 15.141498002804568 20.515069880338483 29.426821474176368
113 37 0 14.802296069005548 20.18108033834708 28.294463396032423
114 38 0 10.654258584930261 30.80183163657333 21.545747211051577
115 38 1 10.605854045787035 30.04553935313229 19.981345679882157
116 38 0 10.237798107589184 31.282936276349858 19.92872657474021
117 39 0 24.522542432656984 32.012146268156705 15.604344014035394
118 39 1 25.396598160247194 32.288801096467566 14.799940675696904
119 39 0 23.71600127916848 32.207421212698065 13.637213423321535
120 40 0 21.81098479596246 43.14942028754384 24.44805358082225
121 40 1 22.871484739865497 42.85063861662465 24.35752282338006
122 40 0 23.40301875928905 42.00782903550295 25.110305546157488
123 41 0 33.31807806632956 27.566054435791404 10.616818380191958
124 41 1 32.291488226676634 29.243338332240306 11.362937120359556
125 41 0 32.82769104717032 27.439388536685758 11.23482153353188
126 42 0 23.50950594294655 46.09942554462363 30.819048882665076
127 42 1 23.737951787090452 47.03929359177818 30.24203893989792
128 42 0 24.744608476502826 47.13306071203877 30.71179812311669
129 43 0 6.909327066689523 20.853972274350895 17.249741434927028
130 43 1 6.253378026935261 20.522393647054706 16.169811042176878
131 43 0 7.174338061381551 19.86281437064439 16.84626306568043
132 44 0 9.76435354029613 21.17759922640215 42.53140416468253
133 44 1 9.495172444305467 21.39855419130339 43.82159117682236
134 44 0 9.251175915375423 22.547775609366767 44.04992807779008
135 45 0 29.485369865238436 4.469060704876023 2.394600924808788
136 45 1 30.014874928628508 4.059742870853991 1.5748242648896622
137 45 0 29.921991400945714 5.255706923765101 1.4892532758412749
138 46 0 3.5768156263707067 8.942473231323973 28.419061424473018
139 46 1 3.3547616808269853 9.205081980588817 29.575249087224908
140 46 0 3.628436830727125 10.818119042393198 30.143282423924624
141 47 0 42.96043854959871 7.5480440791195464 38.74085014946285
142 47 1 44.22763009026083 6.385841680698401 38.60869437604172
143 47 0 43.246727395400725 6.084763902827149 38.24248274077154
144 48 0 4.460112168016535 18.40753016559207 4.878037427395196
145 48 1 4.285074499240684 17.69594213978847 3.9533802019205826
146 48 0 5.467164378018068 17.688700131921824 4.343118902686077
147 49 0 16.01815514170011 21.345569850601038 38.14079322243356
148 49 1 15.427104324979078 20.738031507375783 39.17261562381719
149 49 0 16.366691676390218 21.47852442195802 39.611047720299105
150 50 0 8.519707421045949 46.749208200917764 12.82938380521139
151 50 1 8.121321546484985 45.926344917228064 13.284068650706876
152 50 0 9.204543646891487 45.28637304733636 13.98920071063277
153 51 0 20.259029965893657 34.536512630449444 12.744285156366113
154 51 1 19.09751032698124 35.24598195700509 12.77717909106922
155 51 0 17.653592522463512 37.19431762333921 16.426297757226074
156 52 0 46.622141750718235 30.023206484148975 41.23777366528299
157 52 1 46.84407559761211 30.924941987008413 41.956184084030305
158 52 0 46.909286260237714 31.80175542226886 41.39276909324679
159 53 0 7.924603524356483 17.058857662607792 9.863893222297852
160 53 1 6.904298174835916 16.120458973782892 9.630604453013586
161 53 0 7.253800444578954 15.42949974218397 10.495780919857834
162 54 0 16.01617427365552 31.887880277048858 31.257235733807388
163 54 1 15.72715484686452 31.064996085720328 30.386271076432962
164 54 0 15.537476031463214 28.675466559062553 30.59721659193247
165 55 0 11.589167630781088 26.47693364495253 17.60251484329016
166 55 1 11.187715188183255 27.39310291037206 17.839773984217313
167 55 0 11.699087352569743 27.2426063691055 18.82782245127448
168 56 0 6.258307513513947 15.3156051562747 23.877859492136192
169 56 1 5.874146773538492 14.233542952646223 23.343845463711908
170 56 0 5.637533181198973 14.030542272337033 24.331910267561717
171 57 0 14.581009055188627 15.36329369628226 34.363678941344794
172 57 1 14.198889881113221 14.179212097941319 34.29466494290294
173 57 0 14.879516799165282 14.941416648824699 33.43390085254596
174 58 0 13.98781972207451 28.83832555921502 44.822481416031465
175 58 1 13.728363702789924 28.914922362541958 46.34679042783491
176 58 0 12.685429041426719 28.468303988431796 45.15555503853149
177 59 0 16.048327107403786 12.774893482709121 30.223196455928136
178 59 1 14.061493344928783 10.566282671413388 29.717194067123806
179 59 0 14.201141320210086 10.672041339450969 30.68382835585765
180 60 0 30.29405234072123 42.502939486700406 6.084350817495571
181 60 1 42.469621971272836 35.72619986376442 5.295354719750548
182 60 0 29.760236670184494 40.896542656982525 9.715044893896097
183 61 0 17.108211912852543 18.433510785838205 36.74657779956604
184 61 1 15.642788468460678 17.39870280029366 35.96820167893391
185 61 0 15.13246466242851 17.72064926071617 34.94047131803103
186 62 0 10.12813276952437 48.199389864759745 41.630955549558976
187 62 1 9.062470755158998 48.1205917071852 41.96356574476144
188 62 0 9.603750011470769 47.427058879372986 41.235506264837994
189 63 0 44.762575660877715 7.224781315776426 12.310353617345923
190 63 1 44.55733632183585 6.450545360826413 11.238067474253414
191 63 0 43.771879422464536 7.495011989670391 11.114056811157957
192 64 0 38.78152504466809 12.039697026751762 30.815084508950463
193 64 1 41.026083091669804 10.567539339121625 31.368308377570475
194 64 0 40.78687792660019 9.565378273150252 31.867163828824975
195 65 0 5.444271761900039 41.16033336074343 33.65860129776026
196 65 1 5.424606387796738 42.18297842667615 34.536779136690825
197 65 0 6.2524324893982115 41.45427278256555 34.39830321530289
198 66 0 22.07340638709186 21.561464543215887 45.87228046924528
199 66 1 22.262112574670788 20.50253530838239 46.58214022955846
200 66 0 21.493966280720628 19.94526778298366 46.0324778199159
201 67 0 16.917259567603637 4.3405444832008415 11.553838747728657
202 67 1 17.431134930292153 3.1532006716140306 10.412643550610072
203 67 0 17.44797693166238 4.305829192105026 11.482709755695518
204 68 0 24.628064406291465 37.04467284129877 44.83062319901664
205 68 1 24.94554746317217 38.6486657628154 47.38488224004588
206 68 0 24.076716649514502 37.83289332713793 44.92023410488674
207 69 0 46.133574565305075 41.86354161246437 37.28256168428084
208 69 1 46.036247251864346 42.78883794620923 36.748961058773396
209 69 0 43.6335234883167 43.23613110361629 36.47263183912058
210 70 0 23.069659129693555 35.3651315708524 45.56006418846634
211 70 1 23.951489633769118 35.77099956083291 46.119805772891446
212 70 0 23.546056687148432 34.6995201163801 45.6561776104935
213 71 0 46.44666202559622 22.711013994324052 21.913504809481765
214 71 1 46.49011628513313 21.98551810419598 20.95672568297735
215 71 0 45.2571006720454 22.23829249849753 21.156531604107048
216 72 0 31.145469314473363 11.186641771497694 11.023991148822248
217 72 1 30.537085138809818 11.207419820279176 10.121837662057214
218 72 0 31.17941800847259 10.48861871367563 10.618343804986326
219 73 0 19.545206962763405 40.21092251634367 10.170968664695916
220 73 1 19.942421856975415 40.565885502672465 8.976656326533742
221 73 0 19.744933326189628 39.49974460859683 9.130135889148498
222 74 0 23.561262600141557 31.935966239185422 8.6192957165141
223 74 1 23.2135729442282 32.29325712988671 7.538694118719027
224 74 0 24.213523225134736 31.073831336899005 6.474312528189142
225 75 0 8.213151399237526 18.256137222025032 19.763660675256663
226 75 1 7.627596993142705 19.3973792746652 20.936074748084913
227 75 0 7.823950443909168 18.791078844580973 21.913982588145032
228 76 0 34.64190038412503 14.696735393936187 32.580661629188576
229 76 1 35.364597516003855 12.657302565598641 33.95731185520343
230 76 0 35.336221196392025 14.282309827969963 32.31382648204512
231 77 0 11.936041956801539 4.366557269229551 24.512998568485546
232 77 1 11.869244777609595 3.262798866103837 24.697764805916258
233 77 0 12.9607293394639 3.5958072390537343 24.241230308402287
234 78 0 5.713811216219293 11.981262000120187 5.27188476032056
235 78 1 5.9620770103791765 12.840181068304009 4.660002010773956
236 78 0 5.817561401670201 14.056524959195384 4.81097568170611
237 79 0 10.351440917803647 12.980079978188336 22.478719553277095
238 79 1 9.772551994332247 11.937683599615326 22.638228641086542
239 79 0 10.46744808538534 11.93531199248857 23.525402588977727
240 80 0 43.72021854016194 23.218047559273245 40.08309471415429
241 80 1 43.857070338211386 22.71370626766184 41.292146592835024
242 80 0 43.52385163305261 23.794830808673193 41.51064135941595
243 81 0 18.751301154562057 14.871106121087902 24.04348722395155
244 81 1 18.480259709856128 14.174358221810497 24.74910596799303
245 81 0 17.67320683581988 15.098099133157334 24.97900435628068
246 82 0 42.369991923737715 1.21468138591279 9.116463208494707
247 82 1 43.24061711358713 1.303967470402525 9.667279508579623
248 82 0 41.074314236218264 1.815221148556903 9.347776926351465
249 83 0 20.26525251290838 26.652225465760445 37.533930647220494
250 83 1 20.802470073658853 25.89707335145287 36.38546786100204
251 83 0 22.798337450282663 27.254988154892906 34.22407798692368
252 84 0 20.98993171529859 35.81515203614681 13.000804488967107
253 84 1 22.32256258826644 35.624127207718644 10.236738135560993
254 84 0 21.14715799367607 36.10751726506618 13.542161454007562
255 85 0 45.4973941595973 38.90053957680162 30.965628015598156
256 85 1 44.89818008412776 38.03679723006797 31.490362115962906
257 85 0 44.098051994353256 37.2321030794257 30.82872834994788
258 86 0 25.744485836163502 35.96878211932903 40.49646186914775
259 86 1 24.91117490708122 36.66084481702355 41.14842432095626
260 86 0 23.921645071426276 36.06183602418274 41.30977255218101
261 87 0 39.00621681042171 31.860953049403083 20.083981768096194
262 87 1 45.22124939702651 44.95918691276226 30.902749744199124
263 87 0 32.8116067249289 29.16876294260662 26.39551289589854
264 88 0 42.115110624483705 22.755404223463803 14.000164182006394
265 88 1 43.14909319417039 20.796511211449396 13.516199430536885
266 88 0 42.255523874176475 20.374156012551648 12.850928371251692
267 89 0 39.811841682476455 33.905407244914215 44.73943534720049
268 89 1 39.40994185391578 34.76101896471346 45.62672076881518
269 89 0 38.38140765970097 35.34119321623746 45.44741251946465
270 90 0 32.04898079620114 16.366667911424496 23.96206737426872
271 90 1 39.778973896081766 10.845068012299883 15.600765890332568
272 90 0 46.266160574804914 17.545027613325374 27.551948285771637
273 91 0 17.93269659605743 7.077750253927257 8.175249426507845
274 91 1 17.863160876212902 6.147957731171432 8.787867040222837
275 91 0 19.240840811479572 6.296375790111393 9.22500751354185
276 92 0 11.830138861033634 31.907382876632862 31.425773852966028
277 92 1 10.66951886402395 33.05970654390698 31.882256186435086
278 92 0 11.60666250513354 33.04787080104091 32.52796637710001
279 93 0 21.14195250614557 16.1969582774622 15.532210426939347
280 93 1 24.283689815747678 34.90005547923877 31.87043626380629
281 93 0 22.452010603608827 16.454187791311593 15.658076666620433
282 94 0 26.629906891680204 42.14508290324838 37.50433341561889
283 94 1 25.478711122304798 42.692298486712346 37.04691258525003
284 94 0 24.313330528582423 42.44371611710819 37.37911572152489
285 95 0 11.434913204851043 16.687586893870794 43.36184023929961
286 95 1 10.675717747610088 17.258961555674798 44.014096795295856
287 95 0 11.699960067969966 17.36356538905493 43.26241113977147
288 96 0 15.916892794812048 41.915717306348974 22.804599488032782
289 96 1 15.371323099705112 40.687748616879844 22.794652366049846
290 96 0 14.983630558339465 40.22084794120322 16.192261390916777
291 97 0 30.729135965354132 3.407925971875826 6.964022175823737
292 97 1 31.418642964381505 2.9936639096617492 5.950424088082035
293 97 0 31.5776715560056 4.165782278455235 6.574698495384218
294 98 0 18.3345069844132 38.847688835201126 36.447591622137324
295 98 1 17.284418004303408 38.81019868584315 36.17840634479828
296 98 0 16.70069486478208 39.112178679060314 35.263994330718425
297 99 0 42.61395019017402 9.383171309757874 46.01189596142594
298 99 1 43.671398111443104 8.405408310586731 46.50992536847769
299 99 0 43.196109347954526 9.47685775700743 45.37572765779362
300 100 0 6.22445329555978 40.383464432527 41.30858319327885
301 100 1 5.182287066993243 40.89864732309322 41.9910398375859
302 100 0 4.913357918495182 40.19279210844677 41.01371092664999
303 101 0 46.46462560932098 35.41507291141027 36.96221522070357
304 101 1 47.89371768827075 38.57088231099925 41.76968144349161
305 101 0 47.21151947968913 35.25013863387411 37.64027812927868
306 102 0 27.26832569556323 24.05304719975094 43.33457077067092
307 102 1 26.59996748644611 24.702000610932004 43.94847963145529
308 102 0 26.592774690802276 25.751422892372247 43.565370631808584
309 103 0 39.716312010292555 6.153135646001496 17.116373315847444
310 103 1 40.62281803020361 5.25365548221768 17.47927472092275
311 103 0 39.64382176623094 5.569845932047817 18.18003146432963
312 104 0 28.265115127361234 11.676795673595263 7.090914914550565
313 104 1 45.16592082541188 13.695672255724295 10.521607149926647
314 104 0 27.235730371529574 24.20908609003734 25.906795915634444
315 105 0 34.81915849792823 38.76776967620097 11.65416394561536
316 105 1 35.94491455805373 38.73911952889071 11.392900782473536
317 105 0 36.50505148520033 37.626337368036 11.483579780818296
318 106 0 22.678786595264768 37.90091443554149 39.6122996901071
319 106 1 23.562753684787523 39.36158124382693 40.451444416442015
320 106 0 23.390754214530645 39.60026777331701 39.334111069017105
321 107 0 26.114811871853913 34.94445082442603 6.737965370125229
322 107 1 26.402601310903876 35.958247526575846 6.2787248045093325
323 107 0 27.49738828297379 36.138945751428786 6.358275268587717
324 108 0 19.082934520760904 19.74408243109388 25.394183811858024
325 108 1 22.89289904009636 14.868769263829709 31.876652082136758
326 108 0 18.302935592873865 19.877369713525265 25.475761649007396
327 109 0 44.70513395123607 25.762405586941508 41.118285811362526
328 109 1 44.70423090296524 24.89683829110202 41.784618613841
329 109 0 43.82750367051351 24.583458611760914 41.07292844383129
330 110 0 21.853006820667183 34.91284349714347 4.013163428357884
331 110 1 22.73766309540214 35.7064533324219 3.7018588338555327
332 110 0 23.03042504516213 36.622725145402555 4.249657981589591
