ITEM: TIMESTEP
125
ITEM: NUMBER OF ATOMS
333
ITEM: BOX BOUNDS pp pp pp
0 50.0
0 50.0
0 50.0
ITEM: ATOMS id mol type x y z
0 0 0 27.107102801386514 24.028966966496988 32.45969652628939
1 0 1 26.956200580377985 23.205555829153386 33.051156888917696
2 0 0 26.707326433258878 24.000308839452284 33.82206228957481
3 1 0 23.536580425062212 38.60723307649347 16.0739258163526
4 1 1 19.017247335581544 33.421739931987126 34.50381362860822
5 1 0 23.71104751432587 38.24438347636085 17.14099240129346
6 2 0 39.41346820850956 24.678531979985515 36.86714387778132
7 2 1 38.39270990082088 24.407446676360863 37.32225927173139
8 2 0 37.403651035034514 24.588220463830382 36.5054987672222
9 3 0 28.093631794140226 4.155325575505587 38.48319832208477
10 3 1 28.69208310285033 3.285549871118415 39.59863643694298
11 3 0 28.195821113214173 4.555119395969532 39.16193091212147
12 4 0 33.79598915948512 18.53599418341476 24.758083874291856
13 4 1 33.945696788692324 17.87721791212665 23.823207280116655
14 4 0 34.03072864649173 16.863743693315186 24.21022559496314
15 5 0 23.127533959117134 26.39541058064125 43.65212881156875
16 5 1 23.148098992954328 27.166627553074647 45.03349235532086
17 5 0 22.807680215338117 27.397177565473726 43.55529179685353
18 6 0 44.38421137970943 35.046636632730674 9.683348597286354
19 6 1 45.11204719643569 37.2869182378697 9.55571604900393
20 6 0 44.06473210116321 37.017687785380076 10.176530392229365
21 7 0 36.31642702889296 7.26635642335903 38.93117510130179
22 7 1 37.22688392764551 7.5273187155882555 39.62248420531429
23 7 0 36.56266268108406 8.630813074048518 39.33363027250074
24 8 0 3.6331027025282165 15.930519473128413 11.194526593444007
25 8 1 3.6157502205241094 15.261583001596716 9.873362567275356
26 8 0 4.325508796456967 14.428211681974195 9.764888817820404
27 9 0 23.084890670319446 22.574004165724116 16.82662155611981
28 9 1 33.57354505767922 14.25790599039877 7.046690782364203
29 9 0 2.515008696906148 33.71516739225768 3.2627298848391195
30 10 0 34.752796332040255 15.921692051996223 13.749205578686917
31 10 1 33.91593510237545 15.904686064471978 11.43781435755205
32 10 0 32.73963418397365 16.619328275424532 11.071570626679842
33 11 0 33.189849182834294 46.050387106887456 13.23398028556999
34 11 1 34.35079784323424 46.35011693390012 13.357670169522642
35 11 0 34.396144958210414 45.5914010216915 14.159505104281891
36 12 0 40.63429549702776 38.40907664641537 11.378532519093156
37 12 1 41.73006021518344 37.97373280473077 11.143927142669169
38 12 0 41.86783026030892 37.31098092635749 12.178726304618337
39 13 0 35.36174498741567 26.86764785049084 45.75632717849003
40 13 1 35.66284991860438 25.882007511013075 46.174996081853735
41 13 0 35.51421006714119 25.35265208148108 45.25669817866576
42 14 0 12.604748794792757 28.76877959274887 23.055284570532493
43 14 1 13.370183421927642 29.215601100089035 22.4308876513639
44 14 0 13.2697254206513 28.187623168023322 22.576238287659507
45 15 0 29.083999721088215 21.768308151341135 42.74800138252369
46 15 1 30.44671549436417 21.81222017084489 43.58380495654545
47 15 0 29.855614862617294 21.81679135194909 44.36477919754645
48 16 0 43.76845904983168 36.004565691358394 44.05936880408003
49 16 1 43.566238973390114 36.10417893281373 45.23013893709487
50 16 0 42.54303241652584 36.323693350954834 44.471739347011415
51 17 0 44.161936105831515 22.490837653117325 25.49403108273858
52 17 1 44.54926993454032 23.271072901759883 24.74754170574263
53 17 0 43.373923844170314 23.73988848476434 24.56037154377968
54 18 0 43.839635802269434 13.963648676490386 18.802308829125057
55 18 1 44.21217763361707 13.779047554904132 17.65095937711592
56 18 0 43.82168473720818 12.64242271677403 17.93045937972642
57 19 0 36.874420947551286 12.243692144988497 15.130975307778348
58 19 1 38.05027262986743 12.413280798563008 15.537626655226747
59 19 0 38.56607508378196 13.357987453320446 15.050957990466015
60 20 0 12.386594282596189 44.244367600655785 30.75447684806266
61 20 1 12.911359226496081 45.17910175599865 30.942563968747848
62 20 0 14.140885662867559 45.13433078445659 31.201954268416507
63 21 0 10.37689743243842 43.18967483525916 33.257419980656785
64 21 1 10.451084709413422 43.81611012239365 34.20913976157511
65 21 0 11.00509573819778 42.840499890704365 33.76594950724083
66 22 0 29.679456698585845 18.68569021980185 9.551722407403547
67 22 1 30.643563628775528 18.29894618167631 9.175336514424917
68 22 0 30.085460439153042 17.73868334842035 10.153655669888181
69 23 0 45.40797829602723 11.970541158203641 34.4783769740255
70 23 1 46.10372873189797 11.173745640721389 34.04100345020493
71 23 0 45.05763530585828 10.62730487605543 34.08534610723642
72 24 0 37.041446037965855 30.688620531045515 40.780517018799124
73 24 1 37.77767913418246 31.472951520697617 40.83028804198947
74 24 0 36.95014130902429 31.651781739041525 39.54859863148796
75 25 0 46.23796521271132 35.47328286596552 11.683615046521393
76 25 1 45.35823251278866 35.874930512764045 11.991599838326666
77 25 0 44.23291594450838 35.5209678112838 11.620545594609535
78 26 0 23.477671034311747 13.703587653094578 28.041337042794098
79 26 1 24.302287942614466 13.194461428459428 28.637076521337228
80 26 0 25.340641109235296 12.84277055910622 28.413113017181576
81 27 0 26.01723841220596 12.046816942872377 11.588228553024456
82 27 1 33.766370876185555 12.571791735036593 17.979404991391753
83 27 0 25.877771151353794 11.029882991481779 13.170636559839329
84 28 0 10.162872626919 25.133837793116964 26.102157124281486
85 28 1 9.205244809119106 26.040650590683782 27.278587934172666
86 28 0 10.330795483197774 26.0057137795572 27.213667007919106
87 29 0 30.911011444390233 34.477296249376685 17.068560585584994
88 29 1 31.66012210484479 35.17886615357871 16.266182857745953
89 29 0 31.850600403309336 34.06169534788212 16.306040607445166
90 30 0 48.13538762873804 15.55434050517677 43.967537744880254
91 30 1 48.0687535315766 14.853685054970482 44.94753377094156
92 30 0 47.965185087764034 15.933380544749934 44.758108181228955
93 31 0 28.503643668231906 4.018198887390365 16.8905179443174
94 31 1 29.343340666263938 4.117723592345937 17.629098856789152
95 31 0 29.204314025974977 5.4001781711655275 18.01700219290499
96 32 0 9.65130428136399 38.9316822624337 10.372125417995191
97 32 1 8.813664956578013 38.99926332546909 9.7137300225395
98 32 0 9.285895064319565 37.968964746201785 9.408394718367573
99 33 0 43.51315309401019 38.16540428830973 20.951452132225537
100 33 1 43.3076828097308 37.45948861267454 20.05751815643095
101 33 0 42.574558704761664 36.5615879714368 20.839804403025482
102 34 0 1.4616973241043383 33.92280733806794 11.122567022953737
103 34 1 1.0849227019569156 34.745415498699245 10.335189502039976
104 34 0 0.9224778389288998 33.76723597235653 10.954213591538846
105 35 0 35.19177306503861 23.941164189038002 39.9533891942346
106 35 1 35.73394376867612 23.493950420310806 40.91764502425927
107 35 0 35.177632257466996 23.044109771865234 39.79938524206208
108 36 0 36.297889779948 45.348388427738364 45.48371049861746
109 36 1 36.89189710691531 46.400004021757795 45.83353748520145
110 36 0 36.32525548471849 46.12723294820149 44.59670871101131
111 37 0 16.25622045778591 21.521659913627218 30.09264995424325
112 37 1 15.144439701699996 20.517706067904722 29.427881688995328
113 37 0 14.818388885944543 20.196120492078347 28.321141515153503
114 38 0 10.653983980786357 30.753884657668866 21.462947751961877
115 38 1 10.605261665672312 30.051039312627324 19.98723944763599
116 38 0 10.247415663688296 31.24291912405734 19.917088983391814
117 39 0 24.553256386643206 32.019213963258956 15.592034788122188
118 39 1 25.387697910618282 32.28796791135367 14.796196003409149
119 39 0 23.82769890625758 32.21366516088753 13.709461961812595
120 40 0 21.827435846070536 43.14088979077419 24.451135571105805
121 40 1 22.87165097135902 42.84971125406599 24.358522218749847
122 40 0 23.383912199171373 42.031195005145854 25.091226386829362
123 41 0 33.254680894746144 27.684021473399195 10.658839202345089
124 41 1 32.29797207936805 29.229396894940614 11.359168491052186
125 41 0 32.78735143495187 27.544476675536213 11.253094366333258
126 42 0 23.50706467916726 46.11597171245464 30.80542689169708
127 42 1 23.73909148347262 47.03797114080462 30.243634490729033
128 42 0 24.728816125592342 47.13768252325287 30.6998943682814
129 43 0 6.878651669127609 20.859927231882825 17.215252518278163
130 43 1 6.2572909566405475 20.52153869494247 16.17413582529531
131 43 0 7.1423849464516005 19.87055931066879 16.811489386168823
132 44 0 9.754920247313141 21.18621156522773 42.57575232014748
133 44 1 9.495378843669592 21.399749048303605 43.81924068928969
134 44 0 9.257258853184554 22.52018244913107 44.04318561343921
135 45 0 29.489129222847726 4.44637655319493 2.392810859381042
136 45 1 30.014008146155007 4.063028185674345 1.5756243069097657
137 45 0 29.932070643764646 5.225847560815685 1.4781498481769864
138 46 0 3.57230768504626 8.952623310048459 28.44749205393099
139 46 1 3.3559439605622354 9.209930939431025 29.57552148754707
140 46 0 3.614024325746601 10.730382568033855 30.11049752064373
141 47 0 43.03475709199426 7.490453040190561 38.73722385926279
142 47 1 44.22160921270211 6.390340605598182 38.608923556349254
143 47 0 43.268750866795635 6.070358775397627 38.2424466090123
144 48 0 4.440341126497321 18.39549400318309 4.856727457875193
145 48 1 4.288162274202781 17.697288531974042 3.956051954453262
146 48 0 5.437504752108822 17.67926584815436 4.321638833348625
147 49 0 15.99044535668554 21.31928659646792 38.1688960824881
148 49 1 15.430780121981929 20.741301826848197 39.1709374439366
149 49 0 16.33558579697408 21.452564819626204 39.609869846263784
150 50 0 8.515449792242586 46.74356315202125 12.83211843416989
151 50 1 8.124392294636202 45.92509304754041 13.285688538299263
152 50 0 9.159668337127112 45.31205365235746 13.960550219307155
153 51 0 20.21699842271667 34.563403335899366 12.749653991587827
154 51 1 19.09146783576341 35.25599568190627 12.798711269106713
155 51 0 17.792493295536282 37.00727419668764 16.076550217942565
156 52 0 46.62708973576354 30.043227447626776 41.2538927999624
157 52 1 46.843805535784995 30.924223281359886 41.95482213694173
158 52 0 46.90867643169334 31.79323853412197 41.39843700530524
159 53 0 7.883447187270776 17.02490300263412 9.851458627720064
160 53 1 6.90762912438929 16.121923585505165 9.632613042600877
161 53 0 7.241583586233178 15.440007782224855 10.476116069288826
162 54 0 16.008844455595234 31.860220936510913 31.238020179099884
163 54 1 15.72671116200427 31.055691714220828 30.388328266482706
164 54 0 15.551925771451703 28.85197139258541 30.58348532040977
165 55 0 11.580665565343619 26.48492200986948 17.593051070754505
166 55 1 11.189040989655494 27.391855092005102 17.84124786671998
167 55 0 11.686358136863797 27.25458445565819 18.81367730055954
168 56 0 6.249699248293281 15.286927543486224 23.853294428509457
169 56 1 5.874858341825721 14.236035720654652 23.346176498679533
170 56 0 5.63465119114764 14.01936733436221 24.31920633362966
171 57 0 14.561491416958573 15.33166176677993 34.38119696473101
172 57 1 14.201522874004738 14.183714181041449 34.29246412991427
173 57 0 14.856824634304276 14.900852502914693 33.451526915735464
174 58 0 13.988277052040864 28.845970213445398 44.89525356006337
175 58 1 13.725539607987248 28.913133614595637 46.33794301432844
176 58 0 12.730155425042684 28.489282485384447 45.224344128586644
177 59 0 15.882370747038504 12.590540084562582 30.178500547576302
178 59 1 14.072769144292234 10.578823719905227 29.71991526641949
179 59 0 14.186681992722319 10.655710794476525 30.68496653055185
180 60 0 31.681225110814985 41.7302340441682 5.995641886468643
181 60 1 42.29218077230648 35.811369508578395 5.332521061262136
182 60 0 31.212095284726136 40.30651154890218 9.20901975493157
183 61 0 17.016547551123708 18.369988414091296 36.69653792473746
184 61 1 15.647576216437825 17.40292935776689 35.96980857698917
185 61 0 15.147609294839862 17.716637499159674 34.96483047952178
186 62 0 10.112388456864856 48.2176179908831 41.65065044760576
187 62 1 9.0653299014287 48.119391515781736 41.96159740209968
188 62 0 9.573749556636283 47.42803991698686 41.247308454787074
189 63 0 44.76294459089611 7.19071450535498 12.2770682317504
190 63 1 44.55594791403828 6.455083096562499 11.240517950572682
191 63 0 43.79374342897061 7.45650036232408 11.108136097251963
192 64 0 38.96039494118959 11.922027382163241 30.859339532541878
193 64 1 41.014702819350894 10.57362015492765 31.366167321713665
194 64 0 40.79007724243337 9.58574691249512 31.85713923030202
195 65 0 5.428360360694838 41.2006993868538 33.68420297637517
196 65 1 5.42566533959185 42.178991527776546 34.53394629228895
197 65 0 6.251344795230913 41.47768056622783 34.41802421076304
198 66 0 22.08325662405434 21.53107469687828 45.897372768374375
199 66 1 22.26068275734511 20.504288525071363 46.579776625846584
200 66 0 21.506980107230167 19.94758321691644 46.0452155487033
201 67 0 16.928771691366475 4.271728308346465 11.489050533769595
202 67 1 17.429179838562625 3.1609009286589864 10.41993733809495
203 67 0 17.467748021402656 4.251494247804506 11.430781407734736
204 68 0 24.658129060697522 37.174674773260364 45.046592194479494
205 68 1 24.939593767457904 38.636100291898096 47.35919853418006
206 68 0 24.141463033151783 37.90296559097225 45.11561758902732
207 69 0 46.13300929843195 41.87559451968903 37.27561655808824
208 69 1 46.02504231864004 42.790171041978226 36.74810714782135
209 69 0 43.81336871425149 43.20275767185578 36.493254297375664
210 70 0 23.072962455033952 35.39931424694448 45.569776920265646
211 70 1 23.9493490115519 35.76778646131196 46.11788041283018
212 70 0 23.57744146939483 34.717711075290374 45.67697318239427
213 71 0 46.46109449962234 22.692765002159526 21.890893179734228
214 71 1 46.48707397777181 21.98755972640103 20.959093967141918
215 71 0 45.291409952203466 22.22383927506487 21.141134036959894
216 72 0 31.128444192906993 11.215009093030165 11.016928436713696
217 72 1 30.539074926327757 11.206256958618392 10.124077122969375
218 72 0 31.16459383481511 10.478796865148613 10.589604440181407
219 73 0 19.558865708896285 40.23642989802055 10.136481119539939
220 73 1 19.94105780364798 40.563524108912226 8.980185655534326
221 73 0 19.75307860194621 39.512076243136015 9.108140548103401
222 74 0 23.550843968971485 31.947052293027838 8.595249426354302
223 74 1 23.21805763741361 32.28788117754961 7.5362281012234
224 74 0 24.152174957861252 31.14855836207879 6.537785313959819
225 75 0 8.180610381589497 18.319897693920893 19.826754314805317
226 75 1 7.629987195013114 19.39239130924684 20.9333357370608
227 75 0 7.818272546754326 18.80713479185192 21.894769226476228
228 76 0 34.69129068696516 14.541692910902437 32.69085965759006
229 76 1 35.36089622818035 12.674488012584591 33.94332639924873
230 76 0 35.34603507931277 14.162393212034667 32.4273992558147
231 77 0 11.918059553348582 4.349168286860613 24.522243002393765
232 77 1 11.871913394281886 3.2653374573371297 24.696398891113052
233 77 0 12.93601406674244 3.57257357471031 24.253839611203762
234 78 0 5.713180642560356 11.999925572160691 5.270946344812869
235 78 1 5.96209674787373 12.841167050893354 4.659844014370441
236 78 0 5.817900930434702 14.022002145396874 4.814409719792055
237 79 0 10.331068313872029 12.956271824415948 22.473250664777968
238 79 1 9.77491582368735 11.93987762031471 22.639340217124218
239 79 0 10.45009281372845 11.923956111583882 23.51306471494301
240 80 0 43.72746965240902 23.192590825808985 40.11924291602296
241 80 1 43.85745546312597 22.720244846582677 41.29011823907289
242 80 0 43.53680045087765 23.775716465155877 41.5201030775082
243 81 0 18.760443075049455 14.85576285764813 24.04392790801458
244 81 1 18.478538945704507 14.177311510399154 24.748981134651167
245 81 0 17.69159505507933 15.066190183758604 24.98054454674089
246 82 0 42.396760530054436 1.190976081728805 9.095493483308676
247 82 1 43.22941917494814 1.307377960108911 9.666731126216483
248 82 0 41.22670415434783 1.7843182890426204 9.377506794489745
249 83 0 20.29023030212342 26.622474374418733 37.48324337010455
250 83 1 20.811693992098462 25.906224267048234 36.376932882202375
251 83 0 22.625775901438388 27.138325635775313 34.41132543462376
252 84 0 21.097014767281237 35.79548646138474 12.76647978768229
253 84 1 22.30906760421944 35.62788964564497 10.269757071000306
254 84 0 21.255742099789874 36.06698463891819 13.248175377330416
255 85 0 45.48190243998627 38.879822810985004 30.972885656342104
256 85 1 44.89744094813993 38.03630590445389 31.488762156992514
257 85 0 44.1253680930968 37.26066350746707 30.847062904902394
258 86 0 25.719672004762646 35.98890460029676 40.51566798258614
259 86 1 24.91132934653953 36.65887200604091 41.14743238770898
260 86 0 23.94338015601256 36.07454376313248 41.30604110518775
261 87 0 39.723863096308165 33.37753313855462 21.340038961822838
262 87 1 45.085752401179114 44.74919364372265 30.79153727820067
263 87 0 34.26191020184445 31.012093821671183 26.918835873850696
264 88 0 42.18947163232056 22.617222686515195 13.966739911511912
265 88 1 43.14293879855108 20.804804105324184 13.51735492689247
266 88 0 42.27963230907304 20.37966112154204 12.865860063759692
267 89 0 39.79649762082424 33.93323235186048 44.765945938621066
268 89 1 39.40937404550104 34.76026245107959 45.624995542434974
269 89 0 38.40570856288364 35.325444414086434 45.448543184475554
270 90 0 32.92843504532783 15.742840195404069 23.01782725246695
271 90 1 39.76659228400291 10.935837186400423 15.745164800522273
272 90 0 45.51671853232493 16.776655234291052 26.180413423832903
273 91 0 17.92404420671127 7.060966461545962 8.18341242906686
274 91 1 17.867304779564094 6.149633750048222 8.788334438539335
275 91 0 19.183187720321058 6.286289096305411 9.209381538305111
276 92 0 11.76331733634536 31.966229879512827 31.44378044301284
277 92 1 10.675244180299817 33.05515968505655 31.88126173575959
278 92 0 11.581836723256448 33.061788846567595 32.52588340440979
279 93 0 21.512112666265203 18.397951619480647 17.45486978610918
280 93 1 24.24712214865296 34.6269281495382 31.631116438180044
281 93 0 22.66695483254846 18.623234589049655 17.56452004104397
282 94 0 26.585692117581726 42.161208627322225 37.49161227531175
283 94 1 25.479327399056555 42.69116441725018 37.047991509262175
284 94 0 24.34771483354049 42.445788426834056 37.37452869616179
285 95 0 11.405209145241022 16.67306571240866 43.38195708933063
286 95 1 10.679511227225506 17.25850550710788 44.01119282782273
287 95 0 11.669002135969846 17.385241560402527 43.2887716054646
288 96 0 15.897736573867245 41.87240031660099 22.807509207625557
289 96 1 15.369975679776674 40.68739219358444 22.751130655472892
290 96 0 15.024340942488823 40.269867558316065 16.885696528880846
291 97 0 30.74141258436209 3.3795692899918346 6.931774911858797
292 97 1 31.41743991157949 2.9977183359221886 5.954456185132392
293 97 0 31.58467346746687 4.129242244019437 6.542521413326333
294 98 0 18.322060325066996 38.851691707304425 36.433866658432386
295 98 1 17.28398625080218 38.810092770936386 36.17851446865385
296 98 0 16.720034733321295 39.10989623128924 35.275995871361694
297 99 0 42.65123009712224 9.33499867311163 46.04919127924652
298 99 1 43.6667096963375 8.411950596096995 46.50453792557208
299 99 0 43.23384231677242 9.42035059873217 45.424638607664214
300 100 0 6.196547685101256 40.40783671921315 41.34140256233241
301 100 1 5.1845787517917055 40.89577720622269 41.98715116500204
302 100 0 4.904592903655895 40.21433659738939 41.04311883735871
303 101 0 46.61014909973282 35.739686395568505 37.455051980581345
304 101 1 47.88026070541229 38.529836362702504 41.712953965413156
305 101 0 47.28133205726794 35.58226945920175 38.05507650235683
306 102 0 27.257105736767574 24.064718950968494 43.34458107985813
307 102 1 26.60063254416284 24.702410414255915 43.94747578311513
308 102 0 26.5933988951162 25.733183831541325 43.571392149833905
309 103 0 39.75512007579772 6.125067666079062 17.11449790350042
310 103 1 40.61833311245253 5.256715200580991 17.479795844020803
311 103 0 39.67677393654134 5.548923316770868 18.17358720636042
312 104 0 30.21837631288834 11.915362783080838 7.495265254194383
313 104 1 44.91175309944922 13.758523100202757 10.610139404409582
314 104 0 29.349155505307117 22.964914816261853 24.085894077786946
315 105 0 34.842596115611336 38.76443273129113 11.64927493765053
316 105 1 35.944570780047414 38.73741786247726 11.39332358845481
317 105 0 36.487084380826865 37.65690701595552 11.481700249259054
318 106 0 22.73241000305897 37.98668816689717 39.66844649963124
319 106 1 23.55878130251279 39.35556480245483 40.446393267839596
320 106 0 23.40129064468032 39.60945962994404 39.35912656138579
321 107 0 26.1213163331874 34.96477271556522 6.728873646678133
322 107 1 26.403345888200732 35.95721295257305 6.2793556795201875
323 107 0 27.479148894813676 36.135238464124534 6.357296239319073
324 108 0 19.499544464039566 19.211590460424333 26.102031581706353
325 108 1 22.835385448396686 14.936426820842836 31.788483048877893
326 108 0 18.806489415875948 19.327414307935285 26.17876106074613
327 109 0 44.71481364548251 25.754575960060095 41.134837503080334
328 109 1 44.70086091262292 24.893817548290443 41.78140889415748
329 109 0 43.84539917532482 24.579549443642897 41.09458425799707
330 110 0 21.875406843463438 34.93756286705673 4.009879816197805
331 110 1 22.736891097124698 35.70593265962916 3.7022836031066686
332 110 0 23.02027123875301 36.60636921244615 4.246004398003266
