ITEM: TIMESTEP
128
ITEM: NUMBER OF ATOMS
333
ITEM: BOX BOUNDS pp pp pp
0 50.0
0 50.0
0 50.0
ITEM: ATOMS id mol type x y z
0 0 0 27.109526952678955 24.01294315151514 32.45297488579152
1 0 1 26.955870307954033 23.208137387808517 33.05203619309928
2 0 0 26.710194875662072 23.975026486821086 33.81470975621292
3 1 0 22.961818966239328 37.94770936608101 18.417940352560144
4 1 1 19.090357285708308 33.50116533469185 34.21976191459296
5 1 0 23.116057688610372 37.63308818477776 19.341833473900948
6 2 0 39.39008857936691 24.672987379839874 36.87568291078093
7 2 1 38.39197489769168 24.40815839468936 37.32001036084726
8 2 0 37.438854126684795 24.582400965246798 36.53282480299254
9 3 0 28.124124300784178 4.095777822655535 38.52647002766309
10 3 1 28.688549606597356 3.2922075313378882 39.593406381980756
11 3 0 28.221862586272238 4.5081429905284995 39.2023404856766
12 4 0 33.79924442008089 18.522933107000828 24.73594190750968
13 4 1 33.94556071758617 17.877092350111905 23.825107623180116
14 4 0 34.02965879456145 16.878847861092805 24.20198160779643
15 5 0 23.134276293836866 26.421896163462506 43.7325344850412
16 5 1 23.14688603224739 27.1646279139627 45.023615166127975
17 5 0 22.820221410542825 27.402782642405253 43.63295901214142
18 6 0 44.446301172062135 35.22314419005205 9.670275120021696
19 6 1 45.10635225500897 37.27401437194522 9.55783442211866
20 6 0 44.09457308518847 37.044161902149874 10.161595497400173
21 7 0 36.34285413495188 7.256405565690132 38.948322571736036
22 7 1 37.223177173871306 7.530011104263858 39.620295886790885
23 7 0 36.59553325381106 8.597682758676646 39.35150236289265
24 8 0 3.6334071524580294 15.897991750439255 11.132721955899552
25 8 1 3.6164395494538892 15.262703714621166 9.876947215850057
26 8 0 4.314254784373224 14.442827687035349 9.769368834268693
27 9 0 24.395104158081587 21.532606674344787 15.588632414848542
28 9 1 33.238219261457715 14.48171017864324 7.092829651811834
29 9 0 6.570070197552545 31.175667515126882 3.762327733298825
30 10 0 34.683286582464675 15.92111350305865 13.560470872673157
31 10 1 33.91707908513718 15.906611322752852 11.448386822320195
32 10 0 32.790947944694764 16.58911262878797 11.091300264920495
33 11 0 33.22053690187013 46.064777423243235 13.230559386125638
34 11 1 34.348266609597964 46.348245057973536 13.358661436578975
35 11 0 34.40595567335794 45.60696768549324 14.147067152987125
36 12 0 40.66385260913781 38.39972930302154 11.368012839266296
37 12 1 41.72819333129964 37.9731705494228 11.146611869528442
38 12 0 41.867832948200544 37.329464812280946 12.146368228820364
39 13 0 35.36838447627922 26.852692404250103 45.77030762954547
40 13 1 35.66217252706817 25.882897376273412 46.17312524881139
41 13 0 35.51841365332705 25.35338684330986 45.27269739549665
42 14 0 12.607124498493379 28.799872211994195 23.05141269680307
43 14 1 13.368572613084929 29.21325116168738 22.432311470497563
44 14 0 13.293299604288865 28.194101073026786 22.55749075401877
45 15 0 29.16002652769449 21.770611267248427 42.78772967489214
46 15 1 30.441110865395363 21.812045363064588 43.58087498856596
47 15 0 29.869321531014226 21.817204572447206 44.37193033785412
48 16 0 43.78115126613412 36.002889206885484 44.09333834866399
49 16 1 43.563817268685234 36.104585163455866 45.22557433236093
50 16 0 42.56921174356231 36.31892033897735 44.51081238178287
51 17 0 44.17767443959419 22.50514663685017 25.478739537087346
52 17 1 44.54568426274183 23.270894313970285 24.7483714651472
53 17 0 43.41548944794818 23.728481225687 24.562520361295363
54 18 0 43.853501120871194 13.969492362653474 18.768323962569884
55 18 1 44.21040828555989 13.776799108401635 17.654258451663022
56 18 0 43.83618171784597 12.672576523681526 17.911692783746748
57 19 0 36.91192488576828 12.249922035168892 15.143240594389685
58 19 1 38.05542612044649 12.408814123872448 15.537205591222426
59 19 0 38.55209211468267 13.334424796914234 15.062542854759727
60 20 0 12.398737525029961 44.256825092406054 30.758079202574965
61 20 1 12.91304408584985 45.178451714067805 30.942862542336997
62 20 0 14.101880321620673 45.13233264445702 31.19344661048773
63 21 0 10.35668380766981 43.22092746579198 33.26780085948228
64 21 1 10.452337002718698 43.81256540563791 34.20636204375143
65 21 0 11.005231795184102 42.86592992631899 33.800131063431444
66 22 0 29.69670638768769 18.69592000626398 9.528357078307796
67 22 1 30.640500390105466 18.297967655659967 9.178671748542802
68 22 0 30.11709826254329 17.744232709799768 10.12361398839912
69 23 0 45.43432766984983 11.962864196195829 34.46972281098548
70 23 1 46.10008762557173 11.174091357687331 34.04194862263272
71 23 0 45.08958200325056 10.629463084485343 34.07888495144117
72 24 0 37.05869033071923 30.69276726070614 40.79812456933636
73 24 1 37.77367473382908 31.472759333000845 40.82530758940911
74 24 0 36.99695553324367 31.650707994429098 39.610652049973275
75 25 0 46.22696333808016 35.47025153133214 11.680401464279132
76 25 1 45.35662282774309 35.87494383781516 11.990969821394135
77 25 0 44.269247367359704 35.52714334587752 11.627942827399599
78 26 0 23.501846615439522 13.692959354165193 28.04432579270529
79 26 1 24.302092839320185 13.194459519194837 28.637327283951176
80 26 0 25.31967044296161 12.853340007369585 28.40596398313176
81 27 0 26.954506701235644 12.11024646526833 12.361367558115372
82 27 1 33.648650896761744 12.55626644007585 17.895043522267116
83 27 0 26.82393154973199 11.214858710858055 13.747337747755628
84 28 0 10.095102158781604 25.185584982519856 26.16952686578076
85 28 1 9.21077538388499 26.036362881847793 27.273008451854725
86 28 0 10.310062796814604 26.022562811299967 27.235579075884914
87 29 0 30.929444663265155 34.51564222282572 17.044848547458887
88 29 1 31.658230850182772 35.17490021305153 16.26862289274764
89 29 0 31.862432479952734 34.086809183983874 16.29072610720478
90 30 0 48.13848022720184 15.513963569209812 43.979620185001274
91 30 1 48.0687838836989 14.857075144375615 44.944664448824824
92 30 0 47.96161192486755 15.919518906564322 44.791935990648675
93 31 0 28.520859679767177 4.016551284366398 16.90421228541051
94 31 1 29.341801582696235 4.120925927943771 17.629074860175713
95 31 0 29.211721090513375 5.350584664029272 18.00369350757229
96 32 0 9.636086178428672 38.947031222523414 10.36979205804662
97 32 1 8.815942151117206 38.996842956625365 9.71399476535608
98 32 0 9.264679216527744 37.99233828231122 9.4064885026563
99 33 0 43.51219786106748 38.15373012476536 20.926730666413246
100 33 1 43.30586627252103 37.45804314767035 20.06136679278978
101 33 0 42.604579827856654 36.59639125641598 20.802954066097975
102 34 0 1.4806342271119664 33.96140765692858 11.104649527303785
103 34 1 1.085502748215759 34.74175026537515 10.338126801307482
104 34 0 0.8942569737178182 33.78727812832084 10.9251342265473
105 35 0 35.20943296454982 23.955686545555416 39.988930962475706
106 35 1 35.731239446910315 23.493351131956878 40.91244413533734
107 35 0 35.20318049412125 23.039136271428323 39.84711298615978
108 36 0 36.31999795671302 45.373286951173476 45.514339612465136
109 36 1 36.88874102576959 46.39674396543497 45.828801205764144
110 36 0 36.3536443795343 46.154496847577924 44.641860618965296
111 37 0 16.19635741102331 21.4674008368431 30.050072680906155
112 37 1 15.147142389217667 20.520131256783316 29.428958377355016
113 37 0 14.83500724777339 20.211586046543903 28.346482290423236
114 38 0 10.654156706273634 30.707236167143723 21.38496602550359
115 38 1 10.604689539822441 30.056340895360048 19.9929188062872
116 38 0 10.256246427589883 31.20479065355953 19.904058232900766
117 39 0 24.58345238432442 32.02591061621362 15.581447377843517
118 39 1 25.379158903580752 32.28716706264749 14.792611365715663
119 39 0 23.934135650807114 32.219760831721565 13.777430569461844
120 40 0 21.843194495979006 43.13223783416318 24.454641196500862
121 40 1 22.871842390765803 42.848863006268594 24.359420145153898
122 40 0 23.365095408592815 42.05341645322747 25.07334653967599
123 41 0 33.1959726783397 27.796998667676 10.696699049275649
124 41 1 32.304137084451185 29.216192143439958 11.355570771826358
125 41 0 32.747424860941024 27.642766983675347 11.272793230004309
126 42 0 23.5040559877227 46.13166385890163 30.79213636398905
127 42 1 23.740210314801057 47.03667618627228 30.24519844642327
128 42 0 24.713925199224082 47.1427192517499 30.688164990222248
129 43 0 6.8480049969082275 20.86816794166901 17.182506045354245
130 43 1 6.261117364356867 20.520702916838673 16.17836480222111
131 43 0 7.111785216221589 19.875713772685284 16.776499647470146
132 44 0 9.745897884093514 21.19468106917042 42.61793751039758
133 44 1 9.49557362853906 21.400872585782025 43.817025235251435
134 44 0 9.263111847342495 22.49388670777163 44.036445421103664
135 45 0 29.49259810464404 4.422788062562078 2.391700102036722
136 45 1 30.013129888278723 4.066284377571517 1.5764490852385533
137 45 0 29.94262103513523 5.197360640125738 1.4659623134518511
138 46 0 3.568175616263027 8.963097892995712 28.474756954252634
139 46 1 3.3570499598613397 9.214486975281682 29.57579674134838
140 46 0 3.600456042427536 10.64700804837943 30.07883310729629
141 47 0 43.106247386773155 7.436829186027337 38.73442841744979
142 47 1 44.215759658611965 6.394687907471531 38.60913706278964
143 47 0 43.29086216060415 6.05441107750485 38.24183086170497
144 48 0 4.419491256317994 18.384534941900966 4.836363711598623
145 48 1 4.291198384176336 17.69862100838952 3.958688673949053
146 48 0 5.409748077038683 17.66898414408921 4.299768986842818
147 49 0 15.963032984792429 21.293526882419865 38.19447413657954
148 49 1 15.43436521622787 20.74449151706629 39.169306208416806
149 49 0 16.30563381259943 21.427380159895527 39.61047312848058
150 50 0 8.511336603573415 46.73808920696833 12.834774070740936
151 50 1 8.127315994137952 45.923911704753074 13.287223772240806
152 50 0 9.117001270803033 45.33643527951754 13.933333405274219
153 51 0 20.175783328044194 34.59024094400712 12.756510683836526
154 51 1 19.085767174703722 35.265442340417614 12.819062230101196
155 51 0 17.9248876132656 36.829291796872006 15.74419778193793
156 52 0 46.63179654399215 30.062301835727492 41.26918864725209
157 52 1 46.84354967922868 30.923542827890017 41.95352997712892
158 52 0 46.90808214934875 31.785056328565624 41.403811239555864
159 53 0 7.844150878250211 16.992978453727474 9.839201734724327
160 53 1 6.910839653519096 16.12331991787524 9.634561499423429
161 53 0 7.229431505507337 15.449578223290803 10.457239007314033
162 54 0 16.001785395646714 31.83228043471284 31.22006643760459
163 54 1 15.726285546030782 31.046937353078125 30.39022904962059
164 54 0 15.565813527350898 29.019951872156298 30.570989658754435
165 55 0 11.572058459776132 26.492658101871246 17.583024888710423
166 55 1 11.190358476755353 27.39059845703366 17.842691443363673
167 55 0 11.673867191255226 27.266946424694556 18.800568852854127
168 56 0 6.241879114135782 15.260126860298929 23.828847744505513
169 56 1 5.875540277760491 14.238456347612132 23.348494123504164
170 56 0 5.631444769766629 14.007472766082818 24.306601389110433
171 57 0 14.541589495915007 15.30168449206372 34.40072240613102
172 57 1 14.204103293933802 14.188128437989493 34.290308035404564
173 57 0 14.8353499276204 14.86002373860516 33.46642451346679
174 58 0 13.991044316219499 28.853966718080173 44.96448203907811
175 58 1 13.72282123644886 28.911414134503108 46.3294488855203
176 58 0 12.770880137519676 28.508801179101287 45.291024567079226
177 59 0 15.724837948217615 12.415571896314198 30.135546548871996
178 59 1 14.083558734878004 10.590823403942478 29.722526377830597
179 59 0 14.171578001839627 10.638653889064294 30.68612220676114
180 60 0 32.987565086422514 41.000956181542215 5.915122064925534
181 60 1 42.12501323818104 35.891606902939046 5.367536281783142
182 60 0 32.58040321104637 39.75196824104287 8.729216172146685
183 61 0 16.929303558660358 18.309875176563768 36.64852750581153
184 61 1 15.652083687945282 17.40689227541221 35.971339450395455
185 61 0 15.162825881228708 17.713442869215815 34.98837841772016
186 62 0 10.097374679726007 48.237237962106285 41.671137026099665
187 62 1 9.068208169531793 48.11818935145101 41.95962050698845
188 62 0 9.542712772405048 47.42766127839437 41.25845615849758
189 63 0 44.7644105587034 7.157285884603106 12.246038293466707
190 63 1 44.55459627508752 6.459498045159467 11.24290053852121
191 63 0 43.81392391056429 7.419318070513217 11.101046385423823
192 64 0 39.13029983621385 11.809997671348972 30.901500472108104
193 64 1 41.00392992635146 10.5793638968681 31.364146305081206
194 64 0 40.79252219870297 9.605867997518093 31.847285882110143
195 65 0 5.410944085192866 41.2397350178463 33.70774594131854
196 65 1 5.426733170555714 42.175056004102025 34.531163732840966
197 65 0 6.251614308716237 41.50159506952033 34.43899908682296
198 66 0 22.093104556753485 21.502545675489646 45.92156818974593
199 66 1 22.25928246024153 20.505970543215625 46.57747875491814
200 66 0 21.51952261855469 19.949174719105255 46.05779967572752
201 67 0 16.936103945213528 4.2056454682210305 11.427109300048656
202 67 1 17.427285072594895 3.168239602971432 10.426890032341719
203 67 0 17.490734382759932 4.2002169693176095 11.381461105206423
204 68 0 24.68735410078894 37.29628196076188 45.25081281310512
205 68 1 24.933986765896698 38.62421525984348 47.33496762012977
206 68 0 24.20137882777487 37.97023533043683 45.29947443087733
207 69 0 46.132071662609434 41.887425652446254 37.26879626591253
208 69 1 46.01441965207392 42.7914200626971 36.74730630643148
209 69 0 43.984270304739134 43.17095344745918 36.51290343729579
210 70 0 23.075102236264197 35.43544063527672 45.57932790495699
211 70 1 23.94720283120768 35.76460456848079 46.1159534685187
212 70 0 23.61020124892079 34.73376826862786 45.697994642735345
213 71 0 46.476561360617346 22.67534209858445 21.86948962974589
214 71 1 46.4840995551078 21.989563595154177 20.961419234886417
215 71 0 45.3236050278763 22.20916056333995 21.1252056125618
216 72 0 31.110951049164328 11.245081593347885 11.010278244929207
217 72 1 30.541112186542904 11.205062068488093 10.126374085873708
218 72 0 31.14943136432016 10.467760742714448 10.559562197320302
219 73 0 19.571952984535912 40.26265620027338 10.104320047450255
220 73 1 19.93971319290761 40.561167315447975 8.983649575154592
221 73 0 19.761482353955063 39.52362104009497 9.084863757087676
222 74 0 23.54075761718602 31.957800276367177 8.572321562710222
223 74 1 23.22233407812262 32.28275410213302 7.533896046602736
224 74 0 24.093824851159432 31.21962485968748 6.597995194450399
225 75 0 8.149645952175177 18.380603422768804 19.88658283991057
226 75 1 7.632269220869947 19.38762647302305 20.930740645581366
227 75 0 7.812751421531536 18.82267637023658 21.876523717870786
228 76 0 34.736400901629416 14.395631735704104 32.796090810505824
229 76 1 35.3573762723859 12.690733218822515 33.930127202589524
230 76 0 35.35722618334995 14.048539963903623 32.53335898362141
231 77 0 11.898950251983551 4.332705372587803 24.531774953217532
232 77 1 11.8745414060607 3.2678648065957083 24.695049785669248
233 77 0 12.913075392688118 3.5485932122096506 24.265892365987526
234 78 0 5.712191849248926 12.018716742163436 5.270727382942855
235 78 1 5.962168478782338 12.842062933460168 4.659590192114725
236 78 0 5.817769121198779 13.988785168481291 4.818654347066295
237 79 0 10.310946929222602 12.933874542819618 22.46688715180196
238 79 1 9.777247914397762 11.942030115958747 22.64044598097053
239 79 0 10.43300336809109 11.911847852659188 23.501712313686955
240 80 0 43.734711393930105 23.167341057352722 40.15303700195597
241 80 1 43.85807453143039 22.727289902113974 41.28829842550823
242 80 0 43.550097582537745 23.758154894198178 41.530687237475185
243 81 0 18.770206059091684 14.840091515956866 24.04395274112693
244 81 1 18.476871595152968 14.180231052591894 24.748823798145725
245 81 0 17.708507008340625 15.03514874711095 24.98301829059676
246 82 0 42.42565796607587 1.165311820043115 9.072750358755336
247 82 1 43.2185724218528 1.310740692169481 9.666285141817873
248 82 0 41.37134539113987 1.756134666854086 9.407370326531021
249 83 0 20.315104623049855 26.594736218707368 37.43372161965987
250 83 1 20.820400825475648 25.914866285294405 36.368878398981785
251 83 0 22.46159081813348 27.027793039720674 34.58971966718967
252 84 0 21.196619333568442 35.776059531574724 12.545578460295726
253 84 1 22.296369954944115 35.63145267435653 10.300886681871583
254 84 0 21.359263524449855 36.02947307862378 12.97102181398531
255 85 0 45.46674446004701 38.85975533004235 30.979193054280582
256 85 1 44.89674995692785 38.035834913152314 31.48731073587406
257 85 0 44.15158020960579 37.28824502818622 30.863970987757547
258 86 0 25.69593329734608 36.007953655704114 40.533953253239254
259 86 1 24.911469954502888 36.65701879775146 41.14649030266026
260 86 0 23.96419552954154 36.08654020101852 41.30239222591224
261 87 0 40.394327981543604 34.80373455101499 22.52890500043708
262 87 1 44.95809311695727 44.55135406548683 30.68676837854065
263 87 0 35.63399029534288 32.75134693662355 27.40625182897351
264 88 0 42.26024388253652 22.48598308084534 13.935068582974575
265 88 1 43.137062243152045 20.8126955754107 13.518444316363675
266 88 0 42.30288404737772 20.384648701647425 12.880096225807437
267 89 0 39.78141085020725 33.95987825793087 44.79092800295568
268 89 1 39.408859186421715 34.759555110603095 45.623401131386196
269 89 0 38.42889205824319 35.3100851708571 45.44911296747973
270 90 0 33.76868446992572 15.156589911585213 22.131093210282366
271 90 1 39.752411421698284 11.023318459305344 15.880508116705807
272 90 0 44.79741237991113 16.051965115767537 24.884475175613876
273 91 0 17.915024061853252 7.044854195302315 8.190969345701195
274 91 1 17.87129344287853 6.151269664434063 8.788768603376583
275 91 0 19.128386081494618 6.2761671651783955 9.194895947608488
276 92 0 11.699032062267035 32.02159547037781 31.45972570357216
277 92 1 10.68079677624709 33.05076182155402 31.880310535571503
278 92 0 11.557234260480923 33.076805934267696 32.5251709829453
279 93 0 21.862006312251125 20.471694887359337 19.26628227770663
280 93 1 24.21267329348554 34.36962458538432 31.40566147406953
281 93 0 22.86827101347394 20.666351782806224 19.36036945805979
282 94 0 26.542932678015575 42.17604230270628 37.48006424093933
283 94 1 25.479917322240556 42.69016122049755 37.04894272463824
284 94 0 24.3810684537945 42.447063826589584 37.37080732464585
285 95 0 11.37463373837658 16.656092570369875 43.40236726714035
286 95 1 10.683280585858482 17.258042188634363 44.008306204426404
287 95 0 11.639304928459774 17.40947205277413 43.3145625412927
288 96 0 15.879165448576929 41.83050213263024 22.808774158566912
289 96 1 15.368710477721395 40.68708190573589 22.709869668802593
290 96 0 15.063150331786199 40.31673019303204 17.54460459961167
291 97 0 30.751651995956124 3.3502720012045177 6.901057685024613
292 97 1 31.416263556243948 3.00167956430952 5.958397585348512
293 97 0 31.593288203774478 4.0951316987332556 6.510274293918304
294 98 0 18.310180099695366 38.85597319072456 36.41967480083592
295 98 1 17.283508084828778 38.80994454677007 36.1787072941188
296 98 0 16.739549442883146 39.108013200598165 35.28711087687309
297 99 0 42.68444515962591 9.288631595081034 46.08738539167039
298 99 1 43.662225595721495 8.418224539966793 46.49936112431036
299 99 0 43.27237092147327 9.36633103071733 45.46928122717196
300 100 0 6.171398786539246 40.4319381550757 41.37391824662866
301 100 1 5.186812847358608 40.89296825048196 41.98334525038416
302 100 0 4.893992242018157 40.235172856043945 41.07150715536178
303 101 0 46.74734903344125 36.04587327903961 37.919841359709
304 101 1 47.86757453064709 38.49117003339742 41.659504297943876
305 101 0 47.347137630286724 35.894753716918935 38.445476620251185
306 102 0 27.246442391772536 24.075971139725922 43.35403467744557
307 102 1 26.601258620390745 24.702795900719643 43.946531146852095
308 102 0 26.594094934226394 25.715752144207983 43.577020021637246
309 103 0 39.793253034946375 6.098753956220642 17.110543697068596
310 103 1 40.6139373372902 5.259711434255102 17.480310798260145
311 103 0 39.70897524535463 5.527259312377009 18.16932111477602
312 104 0 32.05750389296906 12.151485340909982 7.89326508147358
313 104 1 44.67226165325452 13.817765765451652 10.693590539993272
314 104 0 31.341899239848658 21.78091483943152 22.352622243510666
315 105 0 34.865023276211375 38.76080604395112 11.644683796712613
316 105 1 35.94426030115502 38.73583408178658 11.393714834991217
317 105 0 36.46959292840583 37.68588053865278 11.480028508833504
318 106 0 22.78328037139833 38.06751958909389 39.72268557084331
319 106 1 23.554960637507524 39.349764153118755 40.44152220157967
320 106 0 23.412217246496375 39.620008723401966 39.3832062529117
321 107 0 26.127668915860657 34.98411071334787 6.7202474256065665
322 107 1 26.40404755214581 35.95623875070466 6.279950133901688
323 107 0 27.461764596185557 36.131555291109734 6.356437532537205
324 108 0 19.891621922020395 18.710119604918802 26.768745565674365
325 108 1 22.781200965584176 15.000166205713885 31.705422893372546
326 108 0 19.2813023285323 18.809139769427887 26.841163732307983
327 109 0 44.72495115355426 25.74723097045456 41.15147444677823
328 109 1 44.697289253921575 24.89023780212353 41.778098377197814
329 109 0 43.861983251491075 24.574233961639994 41.11566342459469
330 110 0 21.896639599884363 34.96165161752775 4.007420920689106
331 110 1 22.736206211855 35.70542551492348 3.7026116341722277
332 110 0 23.009880432510567 36.59043068165142 4.243060615425305
