ITEM: TIMESTEP
129
ITEM: NUMBER OF ATOMS
333
ITEM: BOX BOUNDS pp pp pp
0 50.0
0 50.0
0 50.0
ITEM: ATOMS id mol type x y z
0 0 0 27.110363039095482 24.007696003941373 32.450630053612734
1 0 1 26.95576549215367 23.20897485499498 33.05231356723247
2 0 0 26.71103872346304 23.966873725162024 33.81261475848492
3 1 0 22.78280608629291 37.74218490581234 19.14835066743261
4 1 1 19.113130116917173 33.52590557870348 34.13128289609425
5 1 0 22.930707930865314 37.442765322065064 20.027097829817908
6 2 0 39.38269000404628 24.671262213711195 36.878301571576046
7 2 1 38.391745045567994 24.40837947140676 37.31931116298258
8 2 0 37.44995240075291 24.58059704573076 36.54135241759848
9 3 0 28.13368584724357 4.076445560307265 38.539451173426365
10 3 1 28.68743148069711 3.2943112706938305 39.591748760273845
11 3 0 28.230190371704744 4.4938148693818185 39.2158814255677
12 4 0 33.800263643922406 18.518867303943072 24.728975336134678
13 4 1 33.94551777064105 17.877051154981032 23.825707355080997
14 4 0 34.02932697019012 16.883578680437317 24.199357408376382
15 5 0 23.136636783702546 26.429545301455352 43.75801294396929
16 5 1 23.146503218634336 27.163995278861577 45.020496401742406
17 5 0 22.823942779868407 27.405289262044523 43.65739393169978
18 6 0 44.46593926120651 35.278328437500875 9.666052704551095
19 6 1 45.1045666873715 37.26993169954892 9.558511766363564
20 6 0 44.10379536924304 37.05306131058212 10.157088001793563
21 7 0 36.35128422648987 7.2528021092715855 38.95372104417684
22 7 1 37.221988328595046 7.530869996079823 39.61959329236554
23 7 0 36.60612107665206 8.58754293087756 39.357347635101426
24 8 0 3.6335632024107465 15.887733761100556 11.113358024169285
25 8 1 3.616651979552064 15.263055017942554 9.878062867233375
26 8 0 4.310726294250161 14.447471373545467 9.770892755034405
27 9 0 24.798121429027468 21.211035736018843 15.199970585280118
28 9 1 33.13375374056785 14.551430388438343 7.107184389469284
29 9 0 7.838524041374294 30.381709756528366 3.921247019895269
30 10 0 34.66136969685728 15.921014672278869 13.501287664379136
31 10 1 33.917437540398076 15.907210366527652 11.451682616371828
32 10 0 32.80716885279938 16.579630081582327 11.097805950648151
33 11 0 33.230128739530365 46.06946091671745 13.22929812805496
34 11 1 34.34745821568705 46.34764339821788 13.35898200609944
35 11 0 34.40929767711536 45.61191316783764 14.143199790807701
36 12 0 40.673124867771115 38.396855705452076 11.364610018137961
37 12 1 41.727600495962044 37.97299305604172 11.147462681340784
38 12 0 41.8679383002943 37.335227157264455 12.136185556451338
39 13 0 35.37049241065337 26.84807563266277 45.77483822856695
40 13 1 35.661955480207894 25.883180794373235 46.17252463284864
41 13 0 35.51978014125261 25.353474872891802 45.27779273569967
42 14 0 12.607713686468413 28.810258548888317 23.050278496759955
43 14 1 13.368044089358694 29.212472608875395 22.432779470779
44 14 0 13.301228312104087 28.196161665853364 22.551193240296936
45 15 0 29.183942869455844 21.771330855785255 42.799993819842925
46 15 1 30.43933099033904 21.811990003822082 43.57995900786442
47 15 0 29.873903894331576 21.817342707795238 44.37432187095155
48 16 0 43.78568391598785 36.00223296405344 44.10411813181623
49 16 1 43.56304260642241 36.10471498769327 45.22410819034613
50 16 0 42.577116976870464 36.31751691118069 44.52349401039838
51 17 0 44.18279811746553 22.509568823338874 25.473965587109344
52 17 1 44.54454429723107 23.27083465776093 24.748638028571236
53 17 0 43.42858202036831 23.725028914241772 24.56307559335383
54 18 0 43.857941387019714 13.971659667164873 18.757647008704822
55 18 1 44.209842457720235 13.776080205529901 17.655313981763737
56 18 0 43.84081389026349 12.68191972101634 17.90549325359437
57 19 0 36.923904739972926 12.251862740340234 15.14715246391862
58 19 1 38.05778181671076 12.406867364146235 15.537332156399668
59 19 0 38.54770363619322 13.326935194120596 15.066217324348116
60 20 0 12.402688600094994 44.260696289996226 30.759236405002277
61 20 1 12.913565050421694 45.17825793136204 30.94295509709742
62 20 0 14.089627117060907 45.13158239187796 31.190763952750864
63 21 0 10.349708253197358 43.23132516999279 33.27086598125272
64 21 1 10.452741909431168 43.81141474413543 34.20545817464764
65 21 0 11.0057146027688 42.873931387352215 33.81156922696043
66 22 0 29.70218813246797 18.699575546910012 9.52053947501172
67 22 1 30.639506923354965 18.297657164208417 9.179747048118193
68 22 0 30.127466533338133 17.74559174800543 10.114214519921376
69 23 0 45.44291075089763 11.960708555513625 34.46702510493445
70 23 1 46.09891534183308 11.17420436973679 34.04225354273716
71 23 0 45.09976875490756 10.629814945222366 34.076706481132966
72 24 0 37.06430631645718 30.693906323426468 40.804103225432335
73 24 1 37.772395135126544 31.472690639307373 40.823724489983945
74 24 0 37.01180899875948 31.650667345942935 39.62999386803656
75 25 0 46.22334205945852 35.46918402581057 11.679284303265842
76 25 1 45.35612089870076 35.87497223447765 11.990769356978712
77 25 0 44.280742588507444 35.52895258734747 11.630155305529033
78 26 0 23.509670400974905 13.689594258204403 28.045041951711944
79 26 1 24.302023263528955 13.194452659533704 28.637437639933626
80 26 0 25.312989468108658 12.856783001354524 28.403431452541323
81 27 0 27.2464816401627 12.129825860708374 12.602517696513155
82 27 1 33.611981665446315 12.551430905883812 17.868764568100673
83 27 0 27.11863312592794 11.272647840802014 13.926669794721091
84 28 0 10.073488774700571 25.201618864837947 26.19041249193014
85 28 1 9.212532385366956 26.034998632481873 27.271233272510642
86 28 0 10.303559293914924 26.028354435860773 27.243099837706758
87 29 0 30.934959592070317 34.52811709893624 17.037565620976274
88 29 1 31.65762626337942 35.173621515631964 16.269404990401178
89 29 0 31.866592738826093 34.09479511493934 16.28550033391368
90 30 0 48.13959636248709 15.50060728382707 43.9830205682682
91 30 1 48.06879268727194 14.858182815390899 44.943734107595425
92 30 0 47.96035669554409 15.915153449554968 44.803421447889015
93 31 0 28.5262899597192 4.01596752531333 16.908506597181667
94 31 1 29.34131392801522 4.1219344316736155 17.629064852460942
95 31 0 29.214092494267007 5.335031035746541 17.999559918483932
96 32 0 9.631193345418751 38.95219776039245 10.369199783974205
97 32 1 8.816680419903589 38.99606461316916 9.714084916613134
98 32 0 9.257760150706263 37.999624057107155 9.405637073111466
99 33 0 43.51199032452552 38.15017403593104 20.918860762854937
100 33 1 43.30529276852585 37.457589333452745 20.062588104350368
101 33 0 42.61396411532321 36.60720910972934 20.79128486974783
102 34 0 1.4874448980388253 33.974149512169696 11.099025863391667
103 34 1 1.0856907460729315 34.7405578219246 10.339082047525213
104 34 0 0.8844372228972794 33.79361492673221 10.915473902342619
105 35 0 35.215123812899684 23.961066629006147 40.00048370248359
106 35 1 35.73037004207565 23.49315938746002 40.91077251879264
107 35 0 35.21137888036474 23.036810273117144 39.8623253975874
108 36 0 36.327051968145774 45.38081766605809 45.52462379994989
109 36 1 36.88773251727324 46.39570194262635 45.82728811664458
110 36 0 36.36272642539533 46.16363902697708 44.655786048934225
111 37 0 16.177637533549493 21.450424036026217 30.03644394601454
112 37 1 15.1479663961982 20.52087150711479 29.42931412407453
113 37 0 14.840542446884346 20.216722171372957 28.35441567019758
114 38 0 10.654325625572437 30.69232203757906 21.3606998199985
115 38 1 10.60450724337263 30.058023908778896 19.994718968680647
116 38 0 10.258941481784113 31.192795469529482 19.899473843632514
117 39 0 24.59318358138691 32.02800805207036 15.578400230483975
118 39 1 25.376460406035335 32.28691330395072 14.791482407243299
119 39 0 23.967583460378314 32.221716174741886 13.798550474260614
120 40 0 21.848163482008236 43.12939446867102 24.455879306015035
121 40 1 22.871910672680805 42.84860508345771 24.359689026628644
122 40 0 23.35903549508305 42.06038576821971 25.067803792565066
123 41 0 33.177969721889376 27.83269774283634 10.70801154353561
124 41 1 32.30607299584065 29.21205809769996 11.354437515437585
125 41 0 32.73445506457832 27.67320969250755 11.279611182538888
126 42 0 23.502947411225602 46.13657608898572 30.78788656886801
127 42 1 23.740569686322377 47.03626102958259 30.24570022316925
128 42 0 24.70928441768374 47.1444528624195 30.684387537280916
129 43 0 6.838012791999922 20.87138944778352 17.17222825327181
130 43 1 6.262345543977352 20.520434812384487 16.179722223355885
131 43 0 7.102118222339463 19.87678984255924 16.765033466971843
132 44 0 9.743055845536988 21.197405863872778 42.63116921569756
133 44 1 9.495634370586805 21.40122170159213 43.816335277491476
134 44 0 9.264963626750216 22.485628326465356 44.034252264424424
135 45 0 29.493666215623747 4.414905345670388 2.3914842033648247
136 45 1 30.012840931019074 4.067337891604364 1.576723919763322
137 45 0 29.946164831584767 5.188395347995631 1.4617454685017928
138 46 0 3.5669187301969485 8.966582856036515 28.483357846817274
139 46 1 3.357392158142756 9.215902267826118 29.575887694916545
140 46 0 3.5962362387893947 10.620877233766832 30.06877854070287
141 47 0 43.1288866557853 7.420302146262263 38.73372046629538
142 47 1 44.21389239759891 6.396066854941173 38.60920180823209
143 47 0 43.29810209283921 6.048869832107821 38.24150459604159
144 48 0 4.412450977572026 18.381209089222647 4.829943281184264
145 48 1 4.292175614638917 17.699052241492623 3.9595400135436254
146 48 0 5.40114267616762 17.665437670440795 4.292551976306914
147 49 0 15.954165225156881 21.285251552232083 38.20221626377609
148 49 1 15.435512794512737 20.74551251371389 39.16878569517111
149 49 0 16.296139404164183 21.419351125727154 39.611087598459896
150 50 0 8.510032068454418 46.73634848721521 12.835619442439812
151 50 1 8.12823370802776 45.92354331666349 13.287704044093973
152 50 0 9.103622014065204 45.344072363222196 13.92480457512479
153 51 0 20.16257901601075 34.59894945589209 12.75908168741339
154 51 1 19.083989626359894 35.26838793112728 12.825414917338597
155 51 0 17.96648537743601 36.77344497307945 15.640026583992988
156 52 0 46.63327298842163 30.068292403649814 41.27397736961633
157 52 1 46.843469671450926 30.9233301015972 41.95312551554562
158 52 0 46.90789236311754 31.782471023796443 41.40549235047443
159 53 0 7.831785662976182 16.98305749228904 9.835248272009403
160 53 1 6.911857252344641 16.12375856646911 9.63518227131746
161 53 0 7.225488628490859 15.452476651538008 10.451274412503574
162 54 0 15.99955351492606 31.823124427733703 31.214526395691287
163 54 1 15.726150753315377 31.044214291499106 30.39081006360601
164 54 0 15.570207691271346 29.07266582155649 30.567220303490487
165 55 0 11.569234259839485 26.495119755293324 17.57963764015059
166 55 1 11.19078531778489 27.390187423004956 17.843154190036962
167 55 0 11.669856024063074 27.2710564260397 18.796537431002566
168 56 0 6.239514873365745 15.251833220306098 23.820913075904873
169 56 1 5.875755246192336 14.239227426531793 23.349245893388943
170 56 0 5.63032932476923 14.003441214462297 24.302518316959972
171 57 0 14.535007680868569 15.292282174141155 34.40755309482816
172 57 1 14.204932729607435 14.189548539990517 34.28961569678291
173 57 0 14.828629535194404 14.84664276141952 33.47064562096031
174 58 0 13.992519727827144 28.85666690984733 44.98622933133888
175 58 1 13.721959620548757 28.91086954760949 46.32676058975687
176 58 0 12.78318989872286 28.514815604159182 45.31229099643809
177 59 0 15.675502778129335 12.360783990007233 30.12195135251309
178 59 1 14.086958496012532 10.594604168555668 29.72335362493524
179 59 0 14.16651579806881 10.632939017279861 30.686474277114232
180 60 0 33.394372927143095 40.77349572473983 5.890719104019137
181 60 1 42.072940549503805 35.91660058270115 5.378443744669345
182 60 0 33.00674639609873 39.57952228354569 8.579071619973451
183 61 0 16.901924118070504 18.29109991103434 36.63336091873735
184 61 1 15.65348638581295 17.408120829016998 35.9718210584355
185 61 0 15.167794099510038 17.712595425460012 34.99584999249698
186 62 0 10.092636845260518 48.24393810618497 41.677989660863666
187 62 1 9.06915097188126 48.1177971518144 41.958974161051735
188 62 0 9.532366370178144 47.42723865895774 41.261946435410565
189 63 0 44.765149298544436 7.146536701047935 12.236455625467938
190 63 1 44.55416418356466 6.460908579445625 11.243661276765684
191 63 0 43.820105663320376 7.407508637672956 11.098457874512809
192 64 0 39.18353646722149 11.774828609444066 30.914742865791123
193 64 1 41.000563497369704 10.581156564091556 31.363515747031528
194 64 0 40.79314275855333 9.612351339880378 31.844122522392983
195 65 0 5.404913571741768 41.252150637764686 33.71493995428451
196 65 1 5.4270849807891635 42.17378486609976 34.53026920100829
197 65 0 6.251994469307653 41.50951130643668 34.446116503645875
198 66 0 22.09631180618954 21.493688509899787 45.92923944171553
199 66 1 22.258833266489106 20.506501529650954 46.5767457840854
200 66 0 21.52349749163884 19.949527326252333 46.061860695335895
201 67 0 16.93746009011311 4.184719485042752 11.407565756000343
202 67 1 17.426681441521072 3.170550064606212 10.429079272178653
203 67 0 17.499037228671813 4.184196016358502 11.365970199481428
204 68 0 24.696751125862736 37.33392802090353 45.314614602139386
205 68 1 24.932240528622515 38.62049998285224 47.32740932684703
206 68 0 24.219722571192793 37.99157488176464 45.35669739934641
207 69 0 46.13168205937569 41.89122016126965 37.266608159093515
208 69 1 46.011096031589304 42.791807666656915 36.74705761793547
209 69 0 44.03783830792194 43.16096146887421 36.51907569869729
210 70 0 23.07556007523491 35.44765361997708 45.58241640050227
211 70 1 23.94649923846242 35.76357245236253 46.11532564204749
212 70 0 23.62119632406975 34.73852436771972 45.70490199672255
213 71 0 46.4818396563425 22.669855418331288 21.86279394574824
214 71 1 46.483146321151835 21.990207917715825 20.96216712579566
215 71 0 45.333603203204106 22.204324294729272 21.11989075571172
216 72 0 31.10514088375747 11.25524975216874 11.00818729413232
217 72 1 30.54178784549357 11.204665205922401 10.127135620415046
218 72 0 31.144407872692934 10.463913430174735 10.549484024661247
219 73 0 19.57608509660908 40.271370945050954 10.094380443650524
220 73 1 19.939279637316567 40.560399437891256 8.984762358793708
221 73 0 19.764279231602696 39.52721405802851 9.076993493072846
222 74 0 23.537548317309355 31.96122420705522 8.565119243008901
223 74 1 23.223678401791414 32.28114218765595 7.5331679750424465
224 74 0 24.075520213957 31.241916243942295 6.616836337370242
225 75 0 8.139929012909512 18.39966287796696 19.905300596626475
226 75 1 7.6329872536310415 19.386126562368606 20.92992919487966
227 75 0 7.810989204769318 18.827618951703077 21.870810555583816
228 76 0 34.750036225449016 14.35014731657632 32.829272112262366
229 76 1 35.356270909417375 12.695809319614025 33.92600835224086
230 76 0 35.36127043083978 14.012809861242424 32.5660805593021
231 77 0 11.892472030857752 4.32754776087817 24.534945068602568
232 77 1 11.875387868987922 3.2686860654296375 24.69461420154666
233 77 0 12.906010281407424 3.5406087067820264 24.269691257610933
234 78 0 5.7117886061792085 12.024861529849051 5.270819664224749
235 78 1 5.962203781025802 12.842334022782047 4.659485518721215
236 78 0 5.817616923300475 13.978271092577902 4.820224505856226
237 79 0 10.30445169537762 12.9269048757468 22.464608908736345
238 79 1 9.778000132183053 11.942721381697353 22.64080493504472
239 79 0 10.427498795128475 11.907734455610617 23.49823905100208
240 80 0 43.73706631474438 23.159162462419633 40.16349876533867
241 80 1 43.85833625534752 22.729718342516698 41.287757994617195
242 80 0 43.55453824405567 23.752819647675846 41.53438967404246
243 81 0 18.773520751720767 14.834915599669513 24.04387082460313
244 81 1 18.476341434089036 14.181173853602898 24.74876467458892
245 81 0 17.713673874178056 15.025239761130573 24.984039470942253
246 82 0 42.435619858129186 1.1565268327068208 9.064999362041524
247 82 1 43.21511837206993 1.3118213809509067 9.666157337464352
248 82 0 41.416645025376425 1.7476133087954688 9.41716086325316
249 83 0 20.323169984732058 26.586179849781594 37.41788573301011
250 83 1 20.823116161274978 25.917561194126147 36.36636638900159
251 83 0 22.410079533532226 26.99323148898334 34.64574801054953
252 84 0 21.22725055264751 35.76972701793538 12.476684784945583
253 84 1 22.292419127678006 35.63256778273949 10.310590233559939
254 84 0 21.391869638491006 36.01799699944509 12.88466345229936
255 85 0 45.46188779721513 38.85337381038651 30.98102557342382
256 85 1 44.89653607495732 38.035686135945454 31.486872823940697
257 85 0 44.15985845812859 37.296998779142505 30.869142691637503
258 86 0 25.688454474816407 36.01390619261974 40.539692541260685
259 86 1 24.91151252542088 36.65644334459309 41.14619508972403
260 86 0 23.97075770403508 36.090280539466576 41.301223875379165
261 87 0 40.60190836767513 35.247414353299774 22.900480309383553
262 87 1 44.91832533824244 44.489725861005674 30.654134072555888
263 87 0 36.06269278125055 33.29372603540341 27.556818700161333
264 88 0 42.28246116541244 22.44486646950687 13.925168604164623
265 88 1 43.13521259531866 20.8151720204385 13.518783390587181
266 88 0 42.310260827727056 20.386146326612856 12.884569343500926
267 89 0 39.776557645546575 33.968279730409314 44.79870556985984
268 89 1 39.40870399203067 34.7593361824754 45.62291248376437
269 89 0 38.43617928194109 35.30517581862469 45.44916809507889
270 90 0 34.03299775052342 14.974351867270652 21.855491641612517
271 90 1 39.74725753880881 11.051119092211303 15.922417633431543
272 90 0 44.570289008908304 15.826081509134404 24.479893881236375
273 91 0 17.912001856115314 7.0397623893331 8.193290289041345
274 91 1 17.872556178006167 6.15179340307013 8.788902004143614
275 91 0 19.111203352115115 6.272858393314175 9.190447043754705
276 92 0 11.678671830304154 32.03881074942585 31.464422570539064
277 92 1 10.682566896890963 33.04936453594149 31.880012555185882
278 92 0 11.549256541159755 33.08195309755883 32.525246548363576
279 93 0 21.971257785779333 21.117704766199257 19.83055142357733
280 93 1 24.201942899274194 34.289477229730885 31.33543456081803
281 93 0 22.93071665393915 21.302700776560307 19.919724412471826
282 94 0 26.529346236750843 42.180569012205325 37.476579829166475
283 94 1 25.480103471649763 42.68986526954522 37.04922247561946
284 94 0 24.391687969819507 42.44729243467524 37.369798336964145
285 95 0 11.364453439137643 16.650024330342518 43.40910190985859
286 95 1 10.684505304066535 17.257887625942878 44.00736779755153
287 95 0 11.629902669956175 17.417959157184892 43.322847656976926
288 96 0 15.873251552008385 41.817180647179676 22.808838804200818
289 96 1 15.368317969803051 40.68699251284233 22.69695788275608
290 96 0 15.075342625470592 40.331481921000325 17.751127569543172
291 97 0 30.75451715877256 3.3404953007001326 6.891393989353158
292 97 1 31.41588583514934 3.0029497296430385 5.959662188195195
293 97 0 31.596477859496435 4.084575982560896 6.499738423483988
294 98 0 18.30644131795729 38.857429459289285 36.414950662412224
295 98 1 17.28334193963746 38.8098867266548 36.178789217163946
296 98 0 16.745940981022294 39.10749100215936 35.29052735681248
297 99 0 42.694311281018244 9.273916630581496 46.10008770121159
298 99 1 43.66080962025251 8.42020919027655 46.49772139422315
299 99 0 43.28515973169835 9.349290358463243 45.48281735429978
300 100 0 6.163848891464082 40.43973357154214 41.38444976224596
301 100 1 5.187527193564434 40.892066516611656 41.982123427666465
302 100 0 4.890111196182528 40.24180323549675 41.080528062312645
303 101 0 46.79007412952881 36.14136465754069 38.06472424635811
304 101 1 47.86362034369939 38.47912628936403 41.642852698564
305 101 0 47.367688804697096 35.99196563056693 38.56701748293685
306 102 0 27.24310012575448 24.07953651465842 43.3569832284864
307 102 1 26.601453411517813 24.70291576192381 43.94623733741483
308 102 0 26.594337958104038 25.71026487004086 43.57876104459707
309 103 0 39.80553120054734 6.0905836148907975 17.108766461387336
310 103 1 40.61252438787973 5.260673563486404 17.480477865797003
311 103 0 39.71930488539849 5.520022613635657 18.168431633130805
312 104 0 32.630164718394575 12.22759659827777 8.021104197094315
313 104 1 44.59764987044617 13.836227675227077 10.719596979711131
314 104 0 31.963031640780237 21.409406397362087 21.808668794312513
315 105 0 34.872089088930124 38.759558728288425 11.643258362734265
316 105 1 35.944167056338834 38.735345796300926 11.393834890353576
317 105 0 36.46400835373927 37.69494250777237 11.479532632800293
318 106 0 22.79920566954212 38.092681094622606 39.739925041472404
319 106 1 23.553751458099455 39.34792591515971 40.43997538259149
320 106 0 23.415871684363275 39.623760923494785 39.39084947567987
321 107 0 26.12970154464761 34.99017793892585 6.717547119749228
322 107 1 26.404266027376757 35.955935582550715 6.280135222956826
323 107 0 27.456303924078153 36.13036227821495 6.356185734445235
324 108 0 20.01368263461476 18.55395758346332 26.976379733924613
325 108 1 22.76432221405314 15.02002079492766 31.679550701054865
326 108 0 19.429279758672656 18.647658643583295 27.04753767121102
327 109 0 44.728349855710036 25.74493673980005 41.1569133510746
328 109 1 44.69607247301728 24.888925941472028 41.77699338764594
329 109 0 43.867076494215155 24.572167432647408 41.12239020054916
330 110 0 21.903282159892733 34.96934876683717 4.006811818188487
331 110 1 22.736003267170457 35.70526342888159 3.70269606960973
332 110 0 23.006444580393897 36.58533939186487 4.242265277304432
