ITEM: TIMESTEP
134
ITEM: NUMBER OF ATOMS
333
ITEM: BOX BOUNDS pp pp pp
0 50.0
0 50.0
0 50.0
ITEM: ATOMS id mol type x y z
0 0 0 27.114759173400138 23.981978917642856 32.43812308595156
1 0 1 26.95527708277489 23.21302220548715 33.05359263963945
2 0 0 26.7144728186954 23.927830795614383 33.80464667477454
3 1 0 21.973137663829835 36.81190523082584 22.45417930527728
4 1 1 19.21613708303388 33.63781416239271 33.73106538422784
5 1 0 22.092278163742698 36.58249828697919 23.12480997987245
6 2 0 39.34836000895046 24.663487785192544 36.88979836693064
7 2 1 38.39069815585156 24.409372818218056 37.31616383047835
8 2 0 37.50115180635521 24.572521908211385 36.57999206099612
9 3 0 28.177562393195934 3.982129806468472 38.59403061567817
10 3 1 28.682212107765295 3.3041147109373625 39.583996250178906
11 3 0 28.26982010338155 4.431272596078263 39.285342886662974
12 4 0 33.80490991898217 18.500517115256336 24.696952463914663
13 4 1 33.945320256651335 17.876850273955686 23.828478287899266
14 4 0 34.02783945193051 16.905155026874485 24.187063415166616
15 5 0 23.14959588821189 26.458944457822724 43.87716403753089
16 5 1 23.144724678778346 27.161048450540964 45.00600265458695
17 5 0 22.839206704791284 27.42322111340388 43.77021361597185
18 6 0 44.55738317105327 35.529191055570436 9.645553341452786
19 6 1 45.096365902800606 37.25095667966875 9.561744743437359
20 6 0 44.14520968089443 37.0988817964068 10.137728060470257
21 7 0 36.39106871731984 7.232510347003855 38.97865112808081
22 7 1 37.21632913346702 7.534913178071748 39.61624139672547
23 7 0 36.65686422371679 8.543138390467929 39.3860598338345
24 8 0 3.634781647550811 15.840364439283821 11.024991828989782
25 8 1 3.6175905039317087 15.264662987239932 9.883095526602279
26 8 0 4.294624342133653 14.469146232730322 9.778793074671754
27 9 0 26.58489926856673 19.77647499476692 13.42060096573464
28 9 1 32.66108831485356 14.866858137050135 7.17197133261452
29 9 0 13.614478796891177 26.769349879836263 4.663631024156969
30 10 0 34.56018639105039 15.921263187283778 13.230806919713714
31 10 1 33.91908473470145 15.909903597196234 11.466591280243302
32 10 0 32.882222612827434 16.536304389983748 11.130051131430013
33 11 0 33.27375769024767 46.09223357680869 13.222041042073853
34 11 1 34.34364705960987 46.344775276463636 13.36052614875223
35 11 0 34.42664469452694 45.635043482882 14.1257532201654
36 12 0 40.71554077110892 38.38418182781138 11.348219277123123
37 12 1 41.72483042021302 37.97217236432822 11.151423924959255
38 12 0 41.86926351473095 37.3612956731163 12.08934793442954
39 13 0 35.380331534389924 26.82752915699927 45.79668827611465
40 13 1 35.66092735287618 25.884510105194945 46.1696705380463
41 13 0 35.52640007894912 25.352784319573217 45.30169476727888
42 14 0 12.609333327208743 28.862687646382444 23.045608486603093
43 14 1 13.365442231003312 29.208579001579658 22.435090196937534
44 14 0 13.341570191495324 28.205976744071393 22.51919584525971
45 15 0 29.293939580556252 21.774599173414956 42.85444380422741
46 15 1 30.43101511559684 21.81173270658856 43.5758031410228
47 15 0 29.897073238724587 21.81803990425679 44.38636571574389
48 16 0 43.81078972104694 35.99820486369516 44.15458966859898
49 16 1 43.55937682652448 36.10532779403416 45.21710821908831
50 16 0 42.61089782699607 36.31183512813391 44.58503925733652
51 17 0 44.20771921422393 22.529281871610156 25.452299110833227
52 17 1 44.53920782003721 23.270531332290147 24.749908981004975
53 17 0 43.48891959872195 23.710251793316484 24.564655880711786
54 18 0 43.879001931523895 13.984248724786683 18.70861661128826
55 18 1 44.20716496308076 13.772679637958943 17.660313034581943
56 18 0 43.862703723363104 12.72378500732965 17.87460472532256
57 19 0 36.981144494465994 12.260345409571539 15.166035493052968
58 19 1 38.07623970415971 12.392584731159506 15.541122411655397
59 19 0 38.52793080733039 13.291587312964088 15.08367766324269
60 20 0 12.42186087086199 44.278104220390304 30.764738878710467
61 20 1 12.91588938757286 45.177453242382164 30.94336993817426
62 20 0 14.033445487832289 45.12715981533375 31.17838327849376
63 21 0 10.31285920202496 43.28372579732659 33.283684410443655
64 21 1 10.45469301637295 43.80582080980416 34.201039549423626
65 21 0 11.011268917068737 42.91097199686289 33.86967221072861
66 22 0 29.72799575796667 18.71970185227003 9.480907054748242
67 22 1 30.634686703602505 18.296215842455684 9.184904354527259
68 22 0 30.178516330577015 17.74882101727151 10.071292892477723
69 23 0 45.48471172646336 11.952775800906847 34.454788814321546
70 23 1 46.093309226058345 11.174759423936223 34.04371699312308
71 23 0 45.147737001047155 10.628890570070652 34.0655409966691
72 24 0 37.09172714567413 30.697966366887766 40.835030503384964
73 24 1 37.7663421037554 31.472292693048516 40.816319982755765
74 24 0 37.0812144421267 31.652970878354672 39.71748965670202
75 25 0 46.20546853371432 35.463397434341665 11.673333194065842
76 25 1 45.35384461858943 35.875298250264336 11.989818745506474
77 25 0 44.33411580291038 35.53620566676396 11.63941803983366
78 26 0 23.547355665117795 13.673945032754345 28.04660471121606
79 26 1 24.301639909209314 13.194372709153052 28.63818803708599
80 26 0 25.28160247254945 12.873533704953182 28.389595330124067
81 27 0 28.567491125435396 12.217282605816768 13.695481377552188
82 27 1 33.44610817133906 12.529562475068364 17.74988392357396
83 27 0 28.45143573427185 11.535082602175075 14.73588990765786
84 28 0 9.971438715716456 25.27329580111799 26.283876366218657
85 28 1 9.220794656884502 26.028608992786367 27.262918675776852
86 28 0 10.273386688930307 26.058898280823435 27.28268856909222
87 29 0 30.95809985917209 34.588872654319154 17.005423747400847
88 29 1 31.65477261980713 35.16747651744641 16.273117363929284
89 29 0 31.88912036877413 34.132368364758086 16.258270382745568
90 30 0 48.14584061630277 15.433895914296716 43.99571811702676
91 30 1 48.06882483371471 14.863629962779521 44.93923073450779
92 30 0 47.95360761423585 15.894715827898258 44.86277992244573
93 31 0 28.551356236325763 4.012764422472292 16.9281295449363
94 31 1 29.339044459175458 4.12657879109413 17.628999095787385
95 31 0 29.22533340406639 5.263917013643323 17.980992342894158
96 32 0 9.607841833911396 38.978545568177246 10.367525400007652
97 32 1 8.82024899593538 38.992353969761 9.714555865858102
98 32 0 9.224016600168799 38.032640149677945 9.399769329223613
99 33 0 43.51177730467064 38.1347495484931 20.881929579638687
100 33 1 43.30264018284401 37.45551215752862 20.068290535263493
101 33 0 42.656621804420986 36.65587116186933 20.736985852572886
102 34 0 1.5253263654942828 34.03777232829063 11.072959181023604
103 34 1 1.0866003800203194 34.734717946091486 10.343754524219465
104 34 0 0.8319956275443245 33.82342772607238 10.866780663172278
105 35 0 35.24254882444275 23.992097857523888 40.05688340895197
106 35 1 35.72620287826235 23.49226493115109 40.902765925497526
107 35 0 35.25051364730676 23.020015721482135 39.934135720775785
108 36 0 36.360429321036854 45.41323688424432 45.57725906675927
109 36 1 36.88295209786935 46.39075256944303 45.820128460852594
110 36 0 36.405835360036605 46.21041263798321 44.717706308517535
111 37 0 16.092531384989115 21.373161866224038 29.971775919588627
112 37 1 15.151541618931585 20.524090709576782 29.431098109334553
113 37 0 14.868442456026912 20.242495018070567 28.390520793543395
114 38 0 10.656099345108132 30.621591050592595 21.251309379842645
115 38 1 10.603643107431733 30.065910994415276 20.003106921989552
116 38 0 10.270706006643318 31.137450724832323 19.874410337047795
117 39 0 24.639933102757833 32.037608654129706 15.566621389496309
118 39 1 25.36393857919046 32.28572694030235 14.78629522710344
119 39 0 24.121199936859746 32.23105770877204 13.893375420550601
120 40 0 21.87108481050881 43.11538363136149 24.462620960955125
121 40 1 22.87228909119942 42.84748884269606 24.360818582997197
122 40 0 23.33006804924913 42.09225261480092 25.04297569734033
123 41 0 33.09916626015049 27.99890758406388 10.754725124671584
124 41 1 32.31497459034401 29.19314370264755 11.349199978301392
125 41 0 32.67084280401666 27.809614381198006 11.316689359025998
126 42 0 23.4966028240421 46.158974675510535 30.767817325021504
127 42 1 23.742279057734194 47.03429244178487 30.248082519204065
128 42 0 24.68828223291366 47.15356963837839 30.666346428071062
129 43 0 6.789106957772429 20.891203794516166 17.12494507143946
130 43 1 6.268209155859395 20.51915707362569 16.186203805502167
131 43 0 7.057161186137094 19.877462005522407 16.708475174458336
132 44 0 9.729964487082848 21.210412864206496 42.69166548757811
133 44 1 9.495909510121782 21.402790685536765 43.81321954743233
134 44 0 9.27355334743659 22.447799475599453 44.023603600502256
135 45 0 29.49845084708879 4.3751102920017075 2.391429644264338
136 45 1 30.011409959073838 4.072410842119433 1.5781130506952274
137 45 0 29.964214301279263 5.147067435089776 1.4393831150895755
138 46 0 3.561494120722389 8.98409799729525 28.52302474249352
139 46 1 3.3589175448231097 9.222264030861032 29.576347429953323
140 46 0 3.577246474730082 10.50156755506358 30.02176443939681
141 47 0 43.2343379100145 7.347151463849709 38.731917628478826
142 47 1 44.20507079248197 6.402480597739379 38.60946843830363
143 47 0 43.333812786002326 6.019372923412498 38.2390505936081
144 48 0 4.376298866484518 18.366798660305047 4.800219269195133
145 48 1 4.296848350992082 17.70113538368941 3.9636348825695147
146 48 0 5.362477214848685 17.646665575541732 4.256671823685514
147 49 0 15.911367613715948 21.245765024626003 38.23542074299998
148 49 1 15.440956862656511 20.75035569209054 39.16633242014927
149 49 0 16.251827526551878 21.381517587543364 39.61728881865613
150 50 0 8.503964616564955 46.728217845251166 12.839574591205972
151 50 1 8.13243483946204 45.92187437096565 13.289890974944969
152 50 0 9.04246936803282 45.378917758463906 13.885863335238476
153 51 0 20.100262406727527 34.64091248842102 12.774143857778535
154 51 1 19.075932420366584 35.281734014820906 12.854224770359412
155 51 0 18.15732437933198 36.51786806697147 15.164266634159137
156 52 0 46.640025132435674 30.09574758445784 41.29580185298228
157 52 1 46.84310572329402 30.922362311965074 41.95128306244455
158 52 0 46.90699855785005 31.770508820226386 41.41313874777889
159 53 0 7.7749019011466265 16.93843754049495 9.816270458559476
160 53 1 6.916596493842877 16.12576853744458 9.638100171015077
161 53 0 7.206411322593306 15.464916899794332 10.423642285650713
162 54 0 15.989241612689902 31.778189356818622 31.190045160472874
163 54 1 15.725519475393908 31.03193930685065 30.393328665660096
164 54 0 15.590642974795054 29.313935706812046 30.551331051421084
165 55 0 11.555360091197068 26.50666632909179 17.56230368641091
166 55 1 11.192842880541697 27.388176068010914 17.8453469003547
167 55 0 11.650780591465638 27.291649558245556 18.77869567081623
168 56 0 6.22939110156503 15.214759631749134 23.78249677581518
169 56 1 5.8767451367405625 14.24284438897054 23.35288240011783
170 56 0 5.624397978751399 13.982708358235891 24.282807720802218
171 57 0 14.50210239874394 15.248998564072373 34.44441923981752
172 57 1 14.20890001324868 14.196357963138038 34.286315077189066
173 57 0 14.797889915208819 14.780644449228037 33.48645318558023
174 58 0 14.004458258735887 28.8706893943227 45.086287350677885
175 58 1 13.717936857636648 28.908328511585456 46.31422391717222
176 58 0 12.835611914603978 28.541456340457515 45.41282505264591
177 59 0 15.450504379504704 12.110987471208341 30.058632886658714
178 59 1 14.102624965155563 10.612022548376109 29.727228611520687
179 59 0 14.140843985068848 10.603984129124992 30.68775405508798
180 60 0 35.23379115178218 39.74257712308868 5.7849776313854315
181 60 1 41.83738283600035 36.02966035375194 5.427787283649146
182 60 0 34.93618387122027 38.801446111453664 7.895157951536897
183 61 0 16.776600717770798 18.20593902818986 36.56307496677166
184 61 1 15.659814417874037 17.41361830695464 35.97404373491099
185 61 0 15.192040662861722 17.709979307559855 35.03062920774804
186 62 0 10.070554088003599 48.2787738682468 41.7126784782205
187 62 1 9.073790165226262 48.11588088506309 41.95580409033797
188 62 0 9.4802252758373 47.42307573664056 41.277986174584555
189 63 0 44.77079148211911 7.09516182244796 12.193777204460643
190 63 1 44.55211837569439 6.467578363655619 11.24725375002767
191 63 0 43.84723432249181 7.352221383286633 11.083660287091487
192 64 0 39.42652294134888 11.613723164796154 30.975465755247793
193 64 1 40.98527104197879 10.58929269041907 31.360654300406868
194 64 0 40.794805288556844 9.64326235284881 31.829129892234047
195 65 0 5.372754384664217 41.310447393332716 33.746418006443314
196 65 1 5.428847852555545 42.167664421610226 34.52600394734996
197 65 0 6.2558321622489315 41.54910733250439 34.48287670461645
198 66 0 22.11192550915986 21.45389952614755 45.96498448065388
199 66 1 22.256699243782307 20.508955408802805 46.57329685641824
200 66 0 21.542001278549638 19.95000686701687 46.081324102173525
201 67 0 16.93555425044297 4.0869150141065544 11.316827837478161
202 67 1 17.423840239370247 3.1812460909127513 10.439215744071198
203 67 0 17.546407740833093 4.110974629275144 11.294487256954906
204 68 0 24.742428462829622 37.50193322291956 45.60502125019942
205 68 1 24.92434156787897 38.603571311880735 47.293107036795796
206 68 0 24.299477086085346 38.0921447274048 45.61524658835609
207 69 0 46.129159437268996 41.90917137553917 37.25625132658086
208 69 1 45.99596150476939 42.79355234481438 36.74593722656247
209 69 0 44.28251598817804 43.11512007529803 36.547384724221324
210 70 0 23.076292874029484 35.51043980832465 45.59743763264128
211 70 1 23.943008559844838 35.758552490981984 46.11225779969325
212 70 0 23.67724675282308 34.75832174853255 45.73907486682343
213 71 0 46.50936386783149 22.644533339775062 21.83223776656875
214 71 1 46.47862157042945 21.993285485801923 20.965741503590984
215 71 0 45.378608266512416 22.180330992241267 21.09301879741345
216 72 0 31.075963449503195 11.307364127587674 10.998376114615883
217 72 1 30.545177835558285 11.202671374782092 10.130951746306762
218 72 0 31.119244870651475 10.443548831723906 10.498286826647478
219 73 0 19.595236190745595 40.31516681527654 10.04999802095168
220 73 1 19.93720091557378 40.55664610092605 8.990060689174065
221 73 0 19.778345081532986 39.54358898328254 9.036573347847812
222 74 0 23.522492125814075 31.977322668289716 8.532126854918708
223 74 1 23.22985226649344 32.27373781377937 7.529866702834739
224 74 0 23.99176815845007 31.343886799036586 6.702596429578465
225 75 0 8.09544448278456 18.487001986702165 19.99048048497314
226 75 1 7.636289888845374 19.379222074791603 20.926239218566757
227 75 0 7.8026823334058815 18.85077044908624 21.844785538561254
228 76 0 34.80757778666403 14.144616639408799 32.983274434768646
229 76 1 35.35119048937064 12.718928649455437 33.907294693999646
230 76 0 35.38498202634877 13.84844796340625 32.711503476721305
231 77 0 11.85907907063039 4.303886770440724 24.550862526464133
232 77 1 11.879436254607306 3.2726765011070276 24.692521848461258
233 77 0 12.874629475977866 3.500412081583037 24.287249637624104
234 78 0 5.709227337866094 12.054918265778308 5.2724787515379345
235 78 1 5.962465129097488 12.843498498772089 4.658811043142024
236 78 0 5.816047125371818 13.929410993100992 4.82929052844334
237 79 0 10.273275264926227 12.8954198347962 22.451978308338994
238 79 1 9.781606408219965 11.946010520449 22.642544672090395
239 79 0 10.401167272881858 11.886470203427175 23.482989377115906
240 80 0 43.748478360950735 23.119676237946017 40.210318371875836
241 80 1 43.86015188927436 22.742791347655345 41.28557902448101
242 80 0 43.577411268471785 23.730154689436226 41.55429165665455
243 81 0 18.79059535929202 14.80921651453971 24.0428477956957
244 81 1 18.473862943399926 14.18569962310647 24.748414100715987
245 81 0 17.73624910681301 14.978526534044926 24.990634430485933
246 82 0 42.48881397566078 1.1108392580308846 9.025362269035595
247 82 1 43.19887478155588 1.3169323116466027 9.665598169256976
248 82 0 41.62333063939413 1.7114435560192853 9.4657159306344
249 83 0 20.362066948076208 26.548299319104633 37.34322512094256
250 83 1 20.835413460418767 25.929749249445393 36.354981375488606
251 83 0 22.17442243974047 26.836107122333928 34.90257066927379
252 84 0 21.36169842531942 35.73810218261378 12.163826063240286
253 84 1 22.274586529097974 35.63766208008958 10.354556369589407
254 84 0 21.543013128420547 35.96831548044373 12.49405640066871
255 85 0 45.43887882102509 38.82351364399442 30.988248127021425
256 85 1 44.89557977623836 38.03499604478275 31.48500898980858
257 85 0 44.19816618171928 37.337850865289525 30.8917302028004
258 86 0 25.653998117694368 36.04094494028702 40.565965564140726
259 86 1 24.91169489890354 36.65386003309995 41.144846713350816
260 86 0 24.001015050106922 36.10720214484835 41.295696653577345
261 87 0 41.53198201206547 37.25032630565323 24.590057100204092
262 87 1 44.7384142826438 44.21093315245537 30.50651968438743
263 87 0 38.01118688249298 35.751543446960945 28.229037547968552
264 88 0 42.38429284420812 22.257242048188978 13.880218306865496
265 88 1 43.12669553890391 20.826508392805035 13.520310270309489
266 88 0 42.344700559351566 20.39241219268463 12.905080852610201
267 89 0 39.75339586341787 34.00704349847838 44.83379757041896
268 89 1 39.40804547322955 34.758357828807576 45.62076954843571
269 89 0 38.46961202731752 35.282007599642256 45.448440276298186
270 90 0 35.245863837187656 14.153212513273447 20.612695868143184
271 90 1 39.71628146021823 11.182293839661822 16.108842623515354
272 90 0 43.520292998375936 14.803783548754707 22.642826429163105
273 91 0 17.896660546668787 7.016161775682846 8.20352595355745
274 91 1 17.878423725762474 6.154276280668114 8.789487769949002
275 91 0 19.032656958555773 6.256620736316632 9.170875574462185
276 92 0 11.58380677543974 32.11632125577819 31.483324382815297
277 92 1 10.690911424207195 33.04283428129278 31.878670822438124
278 92 0 11.510523003965767 33.10895842739479 32.527838139455916
279 93 0 22.467249005884362 24.040248089563622 22.38316442409507
280 93 1 24.153406411669014 33.9269455464978 31.017775678601893
281 93 0 23.211375773214687 24.18066948922669 22.44961479069303
282 94 0 26.465804983774863 42.20024460031537 37.46176536018635
283 94 1 25.48096548445659 42.68866268243915 37.05035170568883
284 94 0 24.44149895083601 42.44696648582755 37.36645128166176
285 95 0 11.31301394568266 16.616705748395024 43.44274189280394
286 95 1 10.690473198864193 17.257086950242826 44.00278879750564
287 95 0 11.585925843043942 17.46379654890765 43.36249985980811
288 96 0 15.845490260377517 41.75479112224662 22.806789644163157
289 96 1 15.366559490338718 40.68665263100532 22.638129968463137
290 96 0 15.131230194433302 40.39930944954524 18.694418138347796
291 97 0 30.764947962490083 3.290959493349418 6.846776503364431
292 97 1 31.414079734162993 3.008998879947775 5.965694456001392
293 97 0 31.615005496069635 4.0372728737294725 6.448023389257464
294 98 0 18.289221920821316 38.864961940146735 36.39123765137193
295 98 1 17.282457466250236 38.80953534668254 36.179328244024084
296 98 0 16.77728254652782 39.10562543528479 35.305633815497416
297 99 0 42.735071191766785 9.204832237542112 46.16450989436499
298 99 1 43.65421811966614 8.429467285501545 46.490060427643286
299 99 0 43.34986018101347 9.270238586551207 45.540985525685386
300 100 0 6.131959558954022 40.47735787436458 41.435393270193984
301 100 1 5.190904610998166 40.887765446704435 41.97629508013767
302 100 0 4.867954286929238 40.27298555315499 41.122855712516774
303 101 0 46.982739687881036 36.574589240434236 38.72070447966381
304 101 1 47.845707930292 38.42465174903205 41.56750481014945
305 101 0 47.46167187553374 36.43035157562632 39.11659330708469
306 102 0 27.227838572248878 24.096118503053813 43.3703331020182
307 102 1 26.602331634928916 24.70345552851248 43.94491349329671
308 102 0 26.595642375698144 25.685024056502765 43.58653128269247
309 103 0 39.86438780684687 6.053758708877347 17.0963437535817
310 103 1 40.60576767566297 5.2652636180917405 17.481294412220127
311 103 0 39.768558740295404 5.483338614288644 18.1678222600792
312 104 0 35.21914983531656 12.590053392160995 8.626682419805377
313 104 1 44.26004752630349 13.919807865574324 10.83733666897799
314 104 0 34.77573091146334 19.709634629377693 19.31921753460388
315 105 0 34.90463405272673 38.752993104126155 11.63685766182909
316 105 1 35.943774261524105 38.733180143652284 11.394362888845842
317 105 0 36.43769223975374 37.73616987392018 11.47749224257041
318 106 0 22.871808893650982 38.20613041576294 39.820807925871634
319 106 1 23.54813257569612 39.339374689393885 40.4327237011613
320 106 0 23.434436636204083 39.644436096299835 39.426721382620094
321 107 0 26.139310129008102 35.01793090721828 6.705243538465016
322 107 1 26.40525225395342 35.9545682795632 6.28097077663796
323 107 0 27.43127873565755 36.12461317108023 6.35517188056597
324 108 0 20.56566084710612 17.847909720626845 27.91510784290749
325 108 1 22.68796554363695 15.109833628508875 31.562523736033263
326 108 0 20.098885569438252 17.916870090104258 27.981522136261724
327 109 0 44.74552688079606 25.734336074176817 41.183559438194436
328 109 1 44.68964306368192 24.88119375162603 41.77136124770126
329 109 0 43.88947055265008 24.559416066288797 41.15401730288145
330 110 0 21.933528354486665 35.00567351092983 4.00530732714543
331 110 1 22.735167241772434 35.70449739533923 3.7029372843045505
332 110 0 22.989356784842965 36.56133851744812 4.239622801954605
