ITEM: TIMESTEP
135
ITEM: NUMBER OF ATOMS
66
ITEM: BOX BOUNDS pp pp pp
0 50.0
0 50.0
0 50.0
ITEM: ATOMS id mol type x y z
0 0 0 27.191794602641473 23.790180211168405 32.20680215837181
1 0 1 26.958058336685383 23.23928089156606 33.05852454410698
2 0 0 26.699397264010557 23.662704387382878 33.89691437865753
3 1 0 26.554854885100976 44.22977480229038 7.582828733426131
4 1 1 26.567056255544635 43.393333225104925 6.896608980780981
5 1 0 26.3283973918853 42.54763442547453 6.968567843648563
6 2 0 38.32825905432203 25.407237469952367 38.5291486355839
7 2 1 38.0355223299512 24.640062324317096 37.79536859407036
8 2 0 37.29247299191721 25.036814793424437 37.21362507349782
9 3 0 16.927349659380788 34.74798292866144 24.491701273619114
10 3 1 16.238723829013228 34.77565498165435 24.148411744178798
11 3 0 15.803998079419955 34.00731418769866 23.947720597848377
12 4 0 33.80916904656209 18.477431289368052 24.67451015295838
13 4 1 33.94458700500253 17.884155754328948 23.83426312054005
14 4 0 34.0378272578637 16.855914489057945 24.125333045708043
15 5 0 17.681575210860675 18.745078420030456 25.49317346453898
16 5 1 17.064942164474324 19.48208914896571 26.04000738597379
17 5 0 17.07844878308905 20.439998931519504 25.575699598982965
18 6 0 12.735695366423128 21.36511420566172 15.378667370455648
19 6 1 12.288881201336459 21.53271222698776 14.431799074657306
20 6 0 11.668115926130136 20.742464613105383 14.71803208504515
21 7 0 36.67107838228977 6.8472395148108784 39.11385498325079
22 7 1 37.175814183467885 7.56428672105581 39.592210574257564
23 7 0 37.02707455403191 8.457618384618142 39.63495503980871
24 8 0 5.984044644165982 15.025910097409518 8.722585445716154
25 8 1 5.241689455332083 14.620597237620785 8.249143095252334
26 8 0 5.140949677844047 13.464262091733517 8.30772112128747
27 9 0 26.53520830776287 12.534842067125311 27.947638483481438
28 9 1 26.63492145247652 13.599582651054709 27.717744978158688
29 9 0 25.98269586865003 14.161378123853313 28.261606560258926
30 10 0 33.680077600529756 15.512364842078341 10.550831558783386
31 10 1 34.39660818374646 14.754276376915726 10.759549942761984
32 10 0 34.156407368401574 14.405516576827699 11.709000627764743
33 11 0 33.348377805120656 46.24100291396385 13.09626328131914
34 11 1 34.32240057513104 46.33140183675258 13.366859688617556
35 11 0 34.7009866619296 45.704428510376665 14.156523906696478
36 12 0 25.057283392274304 48.48871245673277 37.19787762948205
37 12 1 25.33893798639642 47.67468187745616 37.77719763795335
38 12 0 25.285740865508576 46.82977228555287 37.59716050026683
39 13 0 35.41031156941103 26.864946987804014 45.924465573267796
40 13 1 35.66951456495005 25.90604337304683 46.16662633692024
41 13 0 35.57859643966616 25.22211112002483 45.379752123148876
42 14 0 12.629472781166191 29.138408257881316 23.013880656766634
43 14 1 13.343361116192776 29.17793693291572 22.44194322189037
44 14 0 13.548009839547476 28.27184050557125 22.357810822305453
45 15 0 31.774654906674375 22.4657264074009 43.29931286572822
46 15 1 31.679223346042097 21.944512606029246 44.16705252820552
47 15 0 30.702424983358082 21.81778422905197 44.42216307737853
48 16 0 44.19324820907385 37.1075967432191 44.684984595874226
49 16 1 43.598029403632964 36.749885185077545 45.29553295691967
50 16 0 42.776764084147096 36.683127611159506 45.021832021416685
51 17 0 24.069037235974076 38.94214081278978 42.99757658098646
52 17 1 23.62131005195252 39.922891824847504 42.96862523741894
53 17 0 22.922821934709347 40.051183225223134 42.11422493732
54 18 0 39.90540995821857 4.4590015136731465 18.924057706178484
55 18 1 40.51466990850473 3.798390523793936 18.58294156004925
56 18 0 41.145003875369554 3.1760899261239524 19.469542378711537
57 19 0 37.064497205279956 12.373634625736527 15.122109342718913
58 19 1 38.0360528569517 12.415176546337685 15.544584882283653
59 19 0 38.57007074959421 13.273914544328145 15.11992422528611
60 20 0 11.823359252061744 44.32856823837158 30.5307463313851
61 20 1 12.57827537016722 44.982279160841266 30.808425363196875
62 20 0 13.400503242158553 44.583006789759274 31.224928672155325
63 21 0 9.969564219745243 44.45812867269864 34.61193781609605
64 21 1 10.46147904967855 43.59247305504096 34.189620692747795
65 21 0 10.596515265693597 44.13937967134219 35.08237545465218
