ITEM: TIMESTEP
136
ITEM: NUMBER OF ATOMS
66
ITEM: BOX BOUNDS pp pp pp
0 50.0
0 50.0
0 50.0
ITEM: ATOMS id mol type x y z
0 0 0 27.17920564623546 23.837212840861476 32.244934315381606
1 0 1 26.95800904806519 23.233842946992155 33.05919605097703
2 0 0 26.71251359612638 23.703147619030076 33.848143460905035
3 1 0 26.536267351230293 44.17946077555067 7.600469639972885
4 1 1 26.56779153488136 43.3922012304496 6.893392670168546
5 1 0 26.334803163630266 42.61591071309926 7.002019489140054
6 2 0 38.347917128798 25.400561269180745 38.546550328211524
7 2 1 38.0338718127018 24.641487094734867 37.79413885274776
8 2 0 37.3006965368201 25.02081457136917 37.21361314256675
9 3 0 16.953667285779066 34.78498844391311 24.504046979988424
10 3 1 16.240407072625125 34.772259772017776 24.149340292570876
11 3 0 15.755232526145996 34.03310597394161 23.92295590119911
12 4 0 33.809395581393396 18.46905974358955 24.683736675125513
13 4 1 33.944616829375384 17.885429597126638 23.832776831553446
14 4 0 34.03796397711213 16.844657536815067 24.139727470745676
15 5 0 17.69586100419338 18.761305673548623 25.4650295396374
16 5 1 17.062707299522433 19.48199781418618 26.043249588967292
17 5 0 17.099654764453884 20.42488647086588 25.552138725088277
18 6 0 12.856147210058808 21.485931323464982 15.374017595201522
19 6 1 12.287640796839884 21.5257462948095 14.44077210914821
20 6 0 11.567558835575593 20.733008686104412 14.578781537145117
21 7 0 36.687846714086966 6.8803493124834425 39.131291857254666
22 7 1 37.174720913970106 7.565305491426546 39.59160378438402
23 7 0 37.0278437719165 8.408092699230796 39.627265784052284
24 8 0 5.970367113395429 14.950894986830107 8.721393671722593
25 8 1 5.239237116342507 14.626493386056808 8.246768537580289
26 8 0 5.1936657320392525 13.444746487983284 8.346726546336336
27 9 0 26.516013964144957 12.521524842930646 27.96744542885877
28 9 1 26.63636642385145 13.601918756830917 27.71605591924088
29 9 0 25.978076741288767 14.136199834325136 28.269169211961525
30 10 0 33.69074629979332 15.521616358593446 10.519074335383905
31 10 1 34.394056036425845 14.755134727788972 10.761275307992232
32 10 0 34.18032079550277 14.386525710499958 11.704842069465206
33 11 0 33.363361409281765 46.20173236864932 13.142471520250526
34 11 1 34.32491357351599 46.33525369885328 13.363838304362407
35 11 0 34.6462270056622 45.682236761387585 14.159003293915923
36 12 0 25.065885294981396 48.46964886397955 37.215978193014614
37 12 1 25.338378791320487 47.673497248144656 37.77577051441953
38 12 0 25.286385863270286 46.868701097698235 37.60137295075574
39 13 0 35.40360803158662 26.84948551979246 45.89002452718618
40 13 1 35.67136659179137 25.906047663007243 46.17078365802411
41 13 0 35.56663255345372 25.24895848142278 45.3550645827418
42 14 0 12.614742270287651 29.29230260254627 23.012119005717377
43 14 1 13.336784031455135 29.165611603470925 22.447839341701428
44 14 0 13.663401154755915 28.30723945332086 22.26275566702225
45 15 0 31.754369321275842 22.468499918701447 43.29518285828565
46 15 1 31.68033635583711 21.943010053323604 44.168005336391175
47 15 0 30.6927495481568 21.827410687353133 44.40639763328035
48 16 0 44.24635169297144 37.08867481594553 44.76345469748594
49 16 1 43.59503770044942 36.75310561477054 45.285502254084335
50 16 0 42.771656788320804 36.65068737135526 45.103883810553555
51 17 0 24.04601287697765 38.93546558501631 42.963140358539746
52 17 1 23.622526821016457 39.925597071881725 42.971884931290056
53 17 0 22.92620910639234 40.013743444012846 42.09714396139602
54 18 0 39.959058231882935 4.404450720245672 18.968141158086933
55 18 1 40.51177960622679 3.801064465711569 18.576076812280473
56 18 0 41.13793394362095 3.186814993354146 19.535639631026093
57 19 0 37.06565272738691 12.371353858536493 15.12452534552307
58 19 1 38.03567986255157 12.414690364132477 15.544900420837216
59 19 0 38.5810798534111 13.280676273968783 15.119814278295667
60 20 0 11.853953960564898 44.29476139755312 30.544504518732555
61 20 1 12.58143814429403 44.98875089344885 30.802915351720955
62 20 0 13.372352872776798 44.54533811609361 31.21368906928315
63 21 0 9.88612530763691 44.39998116154657 34.43325696608533
64 21 1 10.454760651261012 43.603900334215005 34.20616694322521
65 21 0 10.734136642555008 43.98285094865008 35.08204423570563
