ITEM: TIMESTEP
138
ITEM: NUMBER OF ATOMS
333
ITEM: BOX BOUNDS pp pp pp
0 50.0
0 50.0
0 50.0
ITEM: ATOMS id mol type x y z
0 0 0 27.118560197957777 23.961745459528938 32.427119023083556
1 0 1 26.95492405563395 23.216139199532368 33.05449950752882
2 0 0 26.716334813318795 23.898190032307316 33.80113185666241
3 1 0 21.417209087668805 36.172578525859244 24.72585085192769
4 1 1 19.286845616515144 33.714638203627416 33.45632598053149
5 1 0 21.516880248798667 35.99264557574796 25.24903026203525
6 2 0 39.323713692036605 24.658208627377338 36.89719443459511
7 2 1 38.3899698411594 24.410043392845772 37.31403056501822
8 2 0 37.53756090629026 24.567112376090087 36.60652480602816
9 3 0 28.208763975784155 3.9071754194381576 38.6258224540641
10 3 1 28.678372384977312 3.311317538156408 39.57828491136505
11 3 0 28.30005068450619 4.390979009432633 39.34493314619077
12 4 0 33.808140081080225 18.488000313796523 24.674344213073173
13 4 1 33.945180819135665 17.87669502715441 23.83045276544786
14 4 0 34.02683831151433 16.92016397185238 24.178089180690762
15 5 0 23.161860851505292 26.471607317648733 43.96498329225007
16 5 1 23.143427822516994 27.158898497305792 44.99544390476993
17 5 0 22.84747568985887 27.445125230749635 43.85139934361178
18 6 0 44.624113086478125 35.70254048569047 9.629247314365278
19 6 1 45.09051664911856 37.23724347671081 9.564244672711187
20 6 0 44.17367979059997 37.138278730326626 10.12560950985858
21 7 0 36.420697593097366 7.213286736289774 38.99653275199331
22 7 1 37.21205399881063 7.537896675249996 39.61369772046286
23 7 0 36.695619574272335 8.51462118949647 39.40888790384569
24 8 0 3.6363455403773886 15.806585304899139 10.963448206011734
25 8 1 3.618198867234168 15.265794232643811 9.886523004776345
26 8 0 4.2834365702146435 14.484852929300851 9.785549798353157
27 9 0 27.76904295171301 18.81520508333337 12.174532632340512
28 9 1 32.33641081865701 15.083485751472807 7.2162344585140055
29 9 0 17.62526304794653 24.264418468583894 5.201105295675231
30 10 0 34.488010758496706 15.92247657967655 13.041910698069515
31 10 1 33.92026607623846 15.91171126848837 11.476795367199248
32 10 0 32.93571866870303 16.506172478520966 11.155956537029573
33 11 0 33.30400911220711 46.10997114457102 13.214994560308341
34 11 1 34.34082962223963 46.34261226294157 13.36171204893545
35 11 0 34.44146991645119 45.65192608136976 14.113827682681519
36 12 0 40.745230400536364 38.375941837487716 11.335642181077386
37 12 1 41.7228126837514 37.9715864957127 11.154289724114928
38 12 0 41.87132602059491 37.37915169273882 12.056215525798939
39 13 0 35.38747607047958 26.813881727548956 45.81344562932834
40 13 1 35.660161914601595 25.885482975310044 46.16753420641899
41 13 0 35.53151085448858 25.35089501595504 45.31919804476939
42 14 0 12.60925575024952 28.905781233014306 23.04286851080314
43 14 1 13.36337637107019 29.20540790073381 22.436934168962292
44 14 0 13.375006451121005 28.213571484793253 22.492712609200506
45 15 0 29.371826042059737 21.776855430215935 42.89025166527892
46 15 1 30.42495937464971 21.811547237640287 43.57295196020061
47 15 0 29.916182107740333 21.81861201000579 44.39617673027327
48 16 0 43.83414548379927 35.99403942371055 44.19172285105155
49 16 1 43.55664353301761 36.105781975153306 45.21178774494463
50 16 0 42.63149089965006 36.30882168059851 44.63304985086627
51 17 0 44.227133703170836 22.542412633809747 25.437346021658463
52 17 1 44.53530851574515 23.270276598559263 24.75086955727052
53 17 0 43.53177928749379 23.70127259915171 24.56446784513775
54 18 0 43.8947783662573 13.996636635929699 18.673951584522666
55 18 1 44.20516751368115 13.770144531725641 17.664048465754664
56 18 0 43.878997902666036 12.752001746191649 17.84956128626008
57 19 0 37.02626117807955 12.2650417979457 15.181725116286833
58 19 1 38.105064754310625 12.371965226092257 15.551326402340816
59 19 0 38.51525686571967 13.264617782988172 15.0975728338621
60 20 0 12.4367109625507 44.28987881011954 30.7688607355626
61 20 1 12.917440034821851 45.17700060007907 30.94364919865724
62 20 0 13.99395101931667 45.122729146504135 31.169571620520813
63 21 0 10.28066445273439 43.326993536475754 33.29152687030493
64 21 1 10.456195131603254 43.80143248832297 34.19753236696408
65 21 0 11.019358767585503 42.9378605274249 33.91815026987505
66 22 0 29.747271076953396 18.738110220578818 9.448032856423373
67 22 1 30.630922326417622 18.295187935750654 9.188842842480996
68 22 0 30.219201836871232 17.747193469653162 10.041161205747867
69 23 0 45.51736889383342 11.949674374496995 34.446317652409356
70 23 1 46.089054704891225 11.17520099280953 34.044834937651316
71 23 0 45.18321739166239 10.624948634516933 34.056137045061796
72 24 0 37.11334396383305 30.699463394248994 40.86138079596006
73 24 1 37.76181978178038 31.47187879002786 40.8109224815868
74 24 0 37.131934388522765 31.658093189406838 39.77745445491493
75 25 0 46.1912648309814 35.45817132660375 11.668080439822878
76 25 1 45.352271320791964 35.87579622505699 11.98908760325628
77 25 0 44.37254622488424 35.539910816160265 11.644760482516691
78 26 0 23.57625376882343 13.662632971119208 28.045482515848384
79 26 1 24.3012869457065 13.194253587869026 28.63903167591627
80 26 0 25.25850941516728 12.886580807828496 28.37698165889839
81 27 0 29.475004709329806 12.27638690640329 14.447977055111325
82 27 1 33.33222644575303 12.514557933106202 17.668251607271486
83 27 0 29.36588362669775 11.716044019631905 15.289584572178166
84 28 0 9.895169227742418 25.321132196201663 26.34640038090993
85 28 1 9.226953958377635 26.023944306214485 27.25684680745559
86 28 0 10.251083047697398 26.085684425425917 27.317332067239523
87 29 0 30.971598210581913 34.63652039992329 16.98437695176375
88 29 1 31.652659967446613 35.1627521591485 16.275899076621442
89 29 0 31.909433191535907 34.16031839035157 16.234833715301583
90 30 0 48.15168903525591 15.379552168200359 44.001183801836305
91 30 1 48.06883334251901 14.86798891868468 44.93573772410386
92 30 0 47.94763180634221 15.879321219695692 44.913204291638365
93 31 0 28.569188260552778 4.009815417054426 16.94182596681281
94 31 1 29.337404303501586 4.129870564244235 17.628926274646005
95 31 0 29.233739835140554 5.214190618247369 17.968464092121792
96 32 0 9.590175396721598 39.00049335370324 10.367632212186946
97 32 1 8.823003331370252 38.98955829945662 9.714965901331004
98 32 0 9.197615643261383 38.05541720186391 9.393095559169385
99 33 0 43.51261091249552 38.12506999774297 20.854818418292094
100 33 1 43.30074468779475 37.45405903103949 20.072441905552534
101 33 0 42.68611726520987 36.68880170770054 20.697685035631153
102 34 0 1.5604548942313416 34.089846964186115 11.053766540456156
103 34 1 1.0873059240173786 34.73004957484051 10.34747845628652
104 34 0 0.7855729004767872 33.84604482202512 10.826390114298169
105 35 0 35.26388564054018 24.022107423000527 40.10159688893032
106 35 1 35.72299831287405 23.49163402181831 40.89661984680732
107 35 0 35.28034397521303 23.000032060360603 39.987856220440726
108 36 0 36.38552088895433 45.43356111633405 45.62183197103073
109 36 1 36.879352272612145 46.38700067775937 45.81476775395116
110 36 0 36.43834060892736 46.25012130405391 44.75890566567486
111 37 0 16.03373185860688 21.31966404050371 29.92314293210962
112 37 1 15.153778062070224 20.526115555449632 29.432576015610966
113 37 0 14.891457138298035 20.263611602803145 28.415489058430282
114 38 0 10.658805823334713 30.568316770840937 21.176939755471203
115 38 1 10.602985847964078 30.07172813506558 20.00919011645986
116 38 0 10.278246974908585 31.09777814127107 19.85123702064242
117 39 0 24.67587571996241 32.04438317272501 15.561213466819371
118 39 1 25.35490675251444 32.2848541571873 14.782653994259444
119 39 0 24.229782426772946 32.23821104220869 13.957090573342512
120 40 0 21.88737227915775 43.1042665755423 24.468748738349113
121 40 1 22.872642812527417 42.846790366093934 24.361477203840536
122 40 0 23.308128967368113 42.11454187103844 25.026297231465705
123 41 0 33.04912962035933 28.120618986719318 10.779825794949629
124 41 1 32.32131936942099 29.179772175886402 11.345435777033364
125 41 0 32.61937188065291 27.90183302352236 11.351807901760205
126 42 0 23.490513433179085 46.17457055063162 30.75294743766076
127 42 1 23.74356100914235 47.03282395035317 30.249863466445404
128 42 0 24.67386332565478 47.161486112939016 30.652727044880912
129 43 0 6.750346219531591 20.9118154828253 17.091133055920388
130 43 1 6.272676375647184 20.518187981017494 16.19114406818176
131 43 0 7.024404757100701 19.872395113740616 16.663117740000953
132 44 0 9.720682272563396 21.220249452969302 42.73394840650581
133 44 1 9.496098659548682 21.403849448154396 43.81109328177894
134 44 0 9.279717479145608 22.421281768388774 44.015337350390986
135 45 0 29.501739402716247 4.342419589478547 2.392478145128943
136 45 1 30.010260306216132 4.076298712543774 1.5792655061714236
137 45 0 29.979263807720365 5.1175927794532425 1.4197200214383143
138 46 0 3.5581486392439285 8.998456554606394 28.551148074841215
139 46 1 3.3599285362414326 9.22656432485282 29.576738166651054
140 46 0 3.5644085646407264 10.418398459875316 29.9873972032639
141 47 0 43.3109869395256 7.2993561300687455 38.73270480890951
142 47 1 44.198488269565125 6.407089946683382 38.60959870066401
143 47 0 43.36249901653365 5.993393133914498 38.23618773005316
144 48 0 4.3457849034183695 18.357655241286952 4.778803687599721
145 48 1 4.300396193860982 17.70274781984311 3.966779102398073
146 48 0 5.336176383196201 17.630145774623365 4.227700693428795
147 49 0 15.878302322130475 21.21583292762334 38.25578089280347
148 49 1 15.445043943806766 20.753990826221248 39.164515718702766
149 49 0 16.21949610046353 21.35344502714518 39.62613700078291
150 50 0 8.499603193393241 46.722328696231955 12.8424478098669
151 50 1 8.13537787100892 45.92072592125965 13.29140919613333
152 50 0 8.999740449982328 45.40319278753323 13.858702986792393
153 51 0 20.054470852067283 34.672901974156474 12.789126098342798
154 51 1 19.07036601293019 35.29092232978794 12.874047681543924
155 51 0 18.29176041169744 36.338789325036615 14.832385289230867
156 52 0 46.64474781365792 30.11503112434169 41.31096336418823
157 52 1 46.8428537292331 30.92169126493789 41.9500046115819
158 52 0 46.906340004297135 31.76196906959288 41.41842474733143
159 53 0 7.734632930609157 16.90823991870117 9.801757928644738
160 53 1 6.920027513646975 16.12717804003643 9.640249793880844
161 53 0 7.191673812514174 15.472546778124267 10.403830318380075
162 54 0 15.981934745336 31.74269971821647 31.1742446187818
163 54 1 15.72505072843849 31.023586778003175 30.394876161599317
164 54 0 15.605462195173287 29.482999529114608 30.542303838595508
165 55 0 11.544417066712942 26.51513850342585 17.54782577922452
166 55 1 11.19441958380177 27.386597060318923 17.846979488157338
167 55 0 11.636474122955654 27.308383777501685 18.76695143530195
168 56 0 6.223201555996939 15.189902596610803 23.752773960414643
169 56 1 5.877444616931758 14.245491661754855 23.35569208913373
170 56 0 5.619196404145676 13.96526852719015 24.26762829916148
171 57 0 14.475203237960077 15.217899518500662 34.477681792416206
172 57 1 14.211928963335964 14.201589129340356 34.283816717991186
173 57 0 14.776171234705716 14.727742252441168 33.49304162511781
174 58 0 14.020226856687717 28.882942738526133 45.15765125676962
175 58 1 13.714995819980901 28.906469768210467 46.30504793417492
176 58 0 12.866896572728203 28.558949031575082 45.48828173700732
177 59 0 15.293952277568136 11.937291450986447 30.012491241340697
178 59 1 14.11373760177541 10.624370659655169 29.730100587180004
179 59 0 14.119587439735849 10.580057144052406 30.68790808749995
180 60 0 36.49576235393078 39.03263841773365 5.717444558941605
181 60 1 41.67564921675738 36.107283048685765 5.461670459597558
182 60 0 36.2618929161811 38.269386815242484 7.420414494907478
183 61 0 16.68877689243123 18.147411710650836 36.51254195556833
184 61 1 15.66412725336509 17.417292752449534 35.97563904480982
185 61 0 15.21101620792199 17.709881460336764 35.05568673648533
186 62 0 10.054296234252122 48.30852068628545 41.74134215880065
187 62 1 9.077484190115388 48.11437373686967 41.95329412702286
188 62 0 9.437381712159878 47.41745484734505 41.28948873113115
189 63 0 44.77780571385616 7.056105663289809 12.165360319748423
190 63 1 44.55058712123771 6.472556623989742 11.249927659325625
191 63 0 43.864755047189895 7.311676435520421 11.06929806702961
192 64 0 39.595810307715055 11.500582576503067 31.018203530352665
193 64 1 40.97471670848666 10.594915121712003 31.35867515864598
194 64 0 40.794359813639396 9.666428970802341 31.81801028647087
195 65 0 5.344080131431085 41.35348592963266 33.766704285417916
196 65 1 5.430313061471851 42.16295157277348 34.522784970014946
197 65 0 6.26095662899257 41.58144272408874 34.514088757060215
198 66 0 22.124114154198793 21.42700460925504 45.99088607264227
199 66 1 22.255099710277218 20.510704287521662 46.5707555241631
200 66 0 21.555380434149967 19.948876119422764 46.096107418678
201 67 0 16.922557647169434 4.014766655812564 11.250742721675358
202 67 1 17.42173588892538 3.189011198067485 10.446575233169337
203 67 0 17.59307981173704 4.058983053499339 11.242784100480451
204 68 0 24.779437869559 37.61308146902398 45.80764576565964
205 68 1 24.918910418761943 38.59174994275879 47.269343567408356
206 68 0 24.348688441962253 38.1684101101904 45.79258045430708
207 69 0 46.126420570482644 41.92243432979487 37.24859259378768
208 69 1 45.98546038254332 42.79474391290786 36.74517124669604
209 69 0 44.4532752171788 43.082817030688325 36.56732062702109
210 70 0 23.07546677401324 35.56346428960011 45.60936027978676
211 70 1 23.940167746472866 35.75461581457471 46.10982462611524
212 70 0 23.724186052286942 34.769994338637545 45.766547584337545
213 71 0 46.533103921133964 22.626431153636243 21.810837612694122
214 71 1 46.47523008156995 21.995620159362183 20.968456186019278
215 71 0 45.40925438205995 22.161010183663876 21.07076610092713
216 72 0 31.052038681967666 11.35097264671299 10.990905414653664
217 72 1 30.547955421869464 11.201033043135622 10.134075560688048
218 72 0 31.098649270795743 10.426011681084056 10.455814372640292
219 73 0 19.609030223600353 40.35112680761862 10.020214380539894
220 73 1 19.93561577367833 40.5536800710088 8.994047367509621
221 73 0 19.789874147185014 39.555193691979824 9.002542555186752
222 74 0 23.511437040651373 31.989192412325455 8.50901385754525
223 74 1 23.2342087889207 32.268510623524385 7.527596887719237
224 74 0 23.933093700086413 31.415289798312486 6.761981694064827
225 75 0 8.06424818915311 18.548376080656627 20.04945947143165
226 75 1 7.638626730133869 19.374329040163275 20.923687016029355
227 75 0 7.796536104688621 18.867702320890828 21.82674764550462
228 76 0 34.84009388452982 14.00390656677184 33.095573964352305
229 76 1 35.347578900941585 12.735079840703973 33.894283484758354
230 76 0 35.41022055493764 13.730754360150945 32.80738932733859
231 77 0 11.830823457827766 4.287068695346202 24.563867523909778
232 77 1 11.882506482177895 3.275790744731327 24.690922280834076
233 77 0 12.85376182266028 3.467392488220471 24.299836077329708
234 78 0 5.706510552207658 12.078508227560421 5.2752300618317225
235 78 1 5.962778543978714 12.844217591790322 4.658082968069923
236 78 0 5.813795484373787 13.894157789404925 4.838127336850572
237 79 0 10.249492038566029 12.873837374402303 22.440244797201416
238 79 1 9.78435239749272 11.948481426995583 22.643894605228823
239 79 0 10.381191596259722 11.868405011025871 23.473083030130624
240 80 0 43.75726841493016 23.089271381907807 40.241841184701016
241 80 1 43.8624258385361 22.7550495197574 41.28455481074236
242 80 0 43.59777541314699 23.717497416767813 41.57205670086201
243 81 0 18.804975919377593 14.788593173217752 24.041348970975946
244 81 1 18.47206072651824 14.189149751403388 24.74805929946273
245 81 0 17.75069822219846 14.943948979978012 24.997775226584654
246 82 0 42.53681795122011 1.0720405762031293 8.993076577682379
247 82 1 43.186866680966915 1.320673188390326 9.665132250083957
248 82 0 41.767439897314645 1.6903127123938522 9.505429971955397
249 83 0 20.391895333049675 26.523668309039447 37.288205163742944
250 83 1 20.843858727558324 25.93807033554087 36.347137655307144
251 83 0 22.009466282460103 26.727605163481897 35.083092065669376
252 84 0 21.446809193068884 35.71101172572321 11.946325575799369
253 84 1 22.26239496808941 35.641241631830184 10.384880820275528
254 84 0 21.653274633089286 35.9383188599139 12.226324609133673
255 85 0 45.42173276194174 38.80174019270173 30.99175967802125
256 85 1 44.894938706347624 38.03449843071523 31.483891444165508
257 85 0 44.22556906401487 37.36753331475609 30.906091502966166
258 86 0 25.629562430659217 36.05960755329944 40.58437393653876
259 86 1 24.911805438513976 36.65212118841663 41.14390468697184
260 86 0 24.02249070506309 36.118786759682024 41.29159061672065
261 87 0 42.16021496722155 38.62066776959313 25.760079067513114
262 87 1 44.61486389948524 44.019502304676735 30.405186574089896
263 87 0 39.35975184401652 37.44414487377057 28.680311296206778
264 88 0 42.455952626517394 22.126574662992418 13.849285704612054
265 88 1 43.12064944459589 20.834455187234255 13.521342324264626
266 88 0 42.36977720157623 20.395953808669944 12.919492937251572
267 89 0 39.73589323323654 34.03461379709072 44.85769567273289
268 89 1 39.407654583845186 34.757703175968835 45.619393719672324
269 89 0 38.49312427694842 35.26485800926629 45.446626321222084
270 90 0 36.096449481136275 13.594475786899157 19.762957847381
271 90 1 39.67910710094248 11.283058051317246 16.22931523167963
272 90 0 42.77088332246641 14.102455114006647 21.372110590746207
273 91 0 17.88392535017994 6.99921799151513 8.210200790400355
274 91 1 17.882652307446044 6.156134270283059 8.789862354281135
275 91 0 18.97772760763341 6.243733371631375 9.158243043934231
276 92 0 11.514804751020336 32.16890853442461 31.49288674470778
277 92 1 10.697114889033164 33.03808159060835 31.87778652175004
278 92 0 11.48019066623761 33.13244350923788 32.532448325306746
279 93 0 22.80971972220204 26.04703899787279 24.135791116880622
280 93 1 24.12008759874207 33.678075366471575 30.799709116348595
281 93 0 23.402077596753784 26.15580308422036 24.186012988393145
282 94 0 26.419435165118202 42.21261105051066 37.45292835093508
283 94 1 25.48158539101009 42.68802521456209 37.05093868529255
284 94 0 24.478007316477747 42.444898872437705 37.365810305449834
285 95 0 11.270273140315961 16.58652334383309 43.470327329010985
286 95 1 10.695180209095259 17.2563733193174 43.99916614676896
287 95 0 11.55341914630115 17.505128658277297 43.39290256476903
288 96 0 15.825128240125398 41.709198638199815 22.802553869161557
289 96 1 15.365378952343196 40.68651016416772 22.59724807096178
290 96 0 15.170472213069637 40.44718144128032 19.35275936544229
291 97 0 30.768839549470837 3.24967879441903 6.814700493282455
292 97 1 31.412697936329955 3.0135809727050646 5.97028103644997
293 97 0 31.63327855889629 4.005192055163971 6.406882958421145
294 98 0 18.276980993434837 38.87135858201265 36.3719122636614
295 98 1 17.281677552178905 38.809177704733344 36.17991647844766
296 98 0 16.801976039638 39.1049877185452 35.3155646669835
297 99 0 42.75794067107047 9.1534112930274 46.21889115279619
298 99 1 43.64938332988398 8.436268158574602 46.484426578515276
299 99 0 43.40434398033801 9.2128394623077 45.57675959520507
300 100 0 6.113059122921308 40.506449335161804 41.47492690111898
301 100 1 5.193418362283878 40.884502056932654 41.971871972293535
302 100 0 4.846627746696091 40.296098677484835 41.154108006544554
303 101 0 47.113173472390635 36.87450228353298 39.17149502862914
304 101 1 47.83336345264766 38.38725841321662 41.515727007821674
305 101 0 47.52879567189418 36.728747831349004 39.494238035211666
306 102 0 27.217198715743493 24.108076353032494 43.37948996692292
307 102 1 26.602929206734224 24.703821879984087 43.94401388976007
308 102 0 26.59680853605477 25.66718345717803 43.59171162831393
309 103 0 39.90943270579538 6.028517939053427 17.081928673748454
310 103 1 40.60061407333684 5.268746082567311 17.48194757492645
311 103 0 39.805974009551285 5.452800088321445 18.171814853940838
312 104 0 36.99507496484517 12.860128565392362 9.074264456587093
313 104 1 44.028125804771186 13.97728814050469 10.918314687255611
314 104 0 36.71058263227222 18.519879606895742 17.575938478181033
315 105 0 34.9276894100955 38.7472644066433 11.632539685879271
316 105 1 35.94354492329254 38.731754983767246 11.394703506480111
317 105 0 36.41824910345779 37.76471387064085 11.476369602098204
318 106 0 22.92233209756552 38.28320580417047 39.880492682177504
319 106 1 23.544078856145035 39.33320697794422 40.42737356850119
320 106 0 23.44994989917802 39.66355556513984 39.45331754625517
321 107 0 26.14644315844117 35.03734553506168 6.696700436040532
322 107 1 26.405924884974294 35.95363747716055 6.281540727728776
323 107 0 27.413715649288644 36.12020825647681 6.354644344482205
324 108 0 20.945205381542074 17.36367243645138 28.558559262032112
325 108 1 22.63553184196495 15.17149595281783 31.48218774582051
326 108 0 20.558161091358773 17.414672154089406 28.62369798707587
327 109 0 44.75954378406365 25.72643970127096 41.20461330774696
328 109 1 44.683775048334105 24.872969822016504 41.76654221403448
329 109 0 43.903837473589356 24.545780793881264 41.177183193667275
330 110 0 21.954524787299317 35.0325875231774 4.005950686635636
331 110 1 22.734701853366204 35.703927426384574 3.7029152512236316
332 110 0 22.975606108735796 36.543605889186765 4.239068732026372
