ITEM: TIMESTEP
140
ITEM: NUMBER OF ATOMS
66
ITEM: BOX BOUNDS pp pp pp
0 50.0
0 50.0
0 50.0
ITEM: ATOMS id mol type x y z
0 0 0 27.126566538274403 23.834076809137066 32.42452281749378
1 0 1 26.96064701237269 23.2276292859633 33.05071644894113
2 0 0 26.722234983182858 23.806976635902576 33.80451496690051
3 1 0 26.447276990819837 43.872993799520714 7.634117886999497
4 1 1 26.582834911407268 43.42092187427194 6.869516108663512
5 1 0 26.181965047196826 42.462440514801486 7.349394665640217
6 2 0 38.272345388765565 25.196215655386514 38.353466953267926
7 2 1 38.03486373717464 24.655302096190702 37.80211428790032
8 2 0 37.36440200430759 25.00444605728813 37.27287617470934
9 3 0 17.196516291087477 34.51872934018475 24.63034551839243
10 3 1 16.22074586430828 34.8007419292235 24.13903347769181
11 3 0 15.83914544127326 33.8666716320335 23.96818805756292
12 4 0 33.8296494514965 18.380897907643515 24.558086958967795
13 4 1 33.944815467457715 17.87621555367606 23.845060984577987
14 4 0 34.0168167167179 17.082291222945557 24.068396627436716
15 5 0 17.5232838730718 18.9652280875819 25.61912551623685
16 5 1 17.07345736256793 19.48048341322172 26.028392461440813
17 5 0 17.099507649120792 20.244252094694254 25.636220293005774
18 6 0 12.821903570497051 21.630954874195076 15.09446902263844
19 6 1 12.284217307374242 21.503479376359653 14.470298317734335
20 6 0 11.656709631562675 20.944000945452885 14.385008685761113
21 7 0 36.51455555164024 7.077053581950292 39.04071311359704
22 7 1 37.20415087458676 7.545003031953154 39.60917045688017
23 7 0 36.73037856042047 8.535913588449148 39.43688374099946
24 8 0 6.026709318999959 14.93291214021806 8.762756553929597
25 8 1 5.232739712037796 14.600442198055681 8.245124630911345
26 8 0 5.240741195527914 13.879025395995939 8.33117873357679
27 9 0 26.544600857030634 12.814124468563907 27.903126896737486
28 9 1 26.63058521308489 13.587256718716962 27.72330772551193
29 9 0 26.04010268337882 14.075153849428839 28.218395778019328
30 10 0 33.82917848685191 15.38072949059885 10.549617539213125
31 10 1 34.38219576926905 14.76188962553502 10.765854320182898
32 10 0 34.214663494599456 14.43018851891414 11.57845303760333
33 11 0 33.426457658773174 46.16229951165572 13.206851910783847
34 11 1 34.32901424083067 46.33067617488712 13.370160739914443
35 11 0 34.51869430597901 45.79536539127434 13.994403126297138
36 12 0 25.0197493286773 48.236556688453895 37.09523218087741
37 12 1 25.350937845459733 47.69671517451138 37.805586070029285
38 12 0 25.132391897199234 46.732783521312136 37.2436536797649
39 13 0 35.42877247121963 26.733239054469664 45.895974293978696
40 13 1 35.670997237500515 25.906837643418893 46.163875059233696
41 13 0 35.57715774021035 25.383676315673927 45.47972318459837
42 14 0 12.553732954153844 29.217353684891673 23.067626187254056
43 14 1 13.342351858813544 29.174151680312974 22.44145265433201
44 14 0 13.622901759104465 28.224053951197646 22.302702099309535
45 15 0 31.734753429672523 22.407262382604856 43.39598174910466
46 15 1 31.67249807543426 21.943719241557663 44.16319338365124
47 15 0 30.80476962003089 21.845683591170694 44.369961329412554
48 16 0 44.186204836022775 37.164548368798314 44.53217170350161
49 16 1 43.60855357083708 36.74372138652713 45.317490756907894
50 16 0 42.615900289257496 36.72540931025386 44.823434050758706
51 17 0 23.951490778421277 39.13805681215648 42.95453391702428
52 17 1 23.61624345011788 39.914896788074394 42.95757171245427
53 17 0 23.120806008574494 39.98009744511253 42.33649622543288
54 18 0 39.89875918224466 4.471179721154068 19.031497554211775
55 18 1 40.53470661701008 3.778053503431223 18.60295159996475
56 18 0 40.83230784599119 3.4854252942964137 19.04322426646681
57 19 0 37.23811386665823 12.38846133379148 15.192092673868432
58 19 1 38.03466971506806 12.426844429551366 15.535169876802287
59 19 0 38.44161922766408 13.060143882974382 15.227919852166439
60 20 0 11.996594441156955 44.36425149469553 30.591224553983537
61 20 1 12.586239446928749 44.990597215571356 30.788017431413735
62 20 0 13.296541462517148 44.53322525609683 31.17343145894944
63 21 0 9.62819430312732 44.17936824422374 33.82195816411573
64 21 1 10.435054610770022 43.64628868534726 34.26367732207291
65 21 0 11.162998886988452 43.43896400054013 35.00531605095456
