ITEM: TIMESTEP
141
ITEM: NUMBER OF ATOMS
333
ITEM: BOX BOUNDS pp pp pp
0 50.0
0 50.0
0 50.0
ITEM: ATOMS id mol type x y z
0 0 0 27.12161241666472 23.94653077655539 32.418184703259456
1 0 1 26.954677723652292 23.218443937752884 33.05512038096325
2 0 0 26.71723660505071 23.87652681847453 33.80012450941835
3 1 0 21.047210311174982 35.74706997474017 26.237778550303954
4 1 1 19.333859868455626 33.76572447229714 33.27363570760805
5 1 0 21.13465763704841 35.60078841360588 26.660202001926397
6 2 0 39.306619087423186 24.654753081256015 36.90173961512015
7 2 1 38.389478744415655 24.41047949412633 37.31263626918413
8 2 0 37.56260793546465 24.56362530772235 36.624112480923614
9 3 0 28.230522281625223 3.849301033603983 38.643001073883035
10 3 1 28.67560084650771 3.3165225259157154 39.574167830085464
11 3 0 28.3226340521916 4.365571229055809 39.393628408519234
12 4 0 33.81031102360669 18.47975181398574 24.658914267124302
13 4 1 33.945085691385664 17.876580378821313 23.83181249284266
14 4 0 34.026188124981154 16.930253455289083 24.17176985007519
15 5 0 23.172629454080926 26.474378772535594 44.02835422265224
16 5 1 23.142499613314126 27.157367550840934 44.98790786673723
17 5 0 22.851371523941783 27.466994117040183 43.90866105825698
18 6 0 44.67171418243569 35.8182110861276 9.616497526009097
19 6 1 45.08642423141742 37.22763363000562 9.56615734202866
20 6 0 44.19301522678778 37.170409178254694 10.118191894274537
21 7 0 36.44210827113161 7.1968359280243845 39.00902837133293
22 7 1 37.20892695755042 7.540024390335412 39.611828252072
23 7 0 36.72422606557707 8.497024418562534 39.42631310240108
24 8 0 3.637932324049763 15.783257018408476 10.922018644604584
25 8 1 3.618573516948015 15.266567507558396 9.888776207074057
26 8 0 4.2759427421817655 14.495830745942865 9.790974083045372
27 9 0 28.531145467048322 18.190087867471853 11.331740718565483
28 9 1 32.120340608042596 15.227616786333082 7.245496590878275
29 9 0 20.320347047445694 22.58327337397103 5.575366354260702
30 10 0 34.438063081490185 15.924143887043435 12.914417602483223
31 10 1 33.921102798342304 15.912866773199188 11.483532443672638
32 10 0 32.97247842426313 16.486012756487522 11.175884769625092
33 11 0 33.32432176372343 46.12322872836697 13.208869205218623
34 11 1 34.33881880690587 46.341039259653535 13.362588829444093
35 11 0 34.45332826918641 45.66384686098025 14.105926597312846
36 12 0 40.76532817620464 38.37080373391463 11.326359237375028
37 12 1 41.72139105449581 37.9711822583982 11.15629488713794
38 12 0 41.873516406245365 37.390966376971356 12.033542008063396
39 13 0 35.39248879609166 26.80513476188484 45.82578321457854
40 13 1 35.65961270254666 25.886170221315357 46.16599402566055
41 13 0 35.53529269027171 25.34867113317035 45.331571680275744
42 14 0 12.608516853469018 28.939288774220636 23.0412680267856
43 14 1 13.361808298269194 29.202949594674127 22.438340290796038
44 14 0 13.401097773279453 28.21935422805681 22.4720576098784
45 15 0 29.425260985415203 21.778360902273455 42.912809094937096
46 15 1 30.420693221122708 21.81141789099963 43.571070545880836
47 15 0 29.931095238969753 21.81905587594624 44.403721913864416
48 16 0 43.85392669109024 35.990304665743245 44.218315415130846
49 16 1 43.554672997369636 36.106107125255704 45.2078706546449
50 16 0 42.64342542188758 36.30743043257392 44.66914487812451
51 17 0 44.24164017403402 22.550852008841712 25.427359894962947
52 17 1 44.5325536690818 23.2700735007299 24.751570723891632
53 17 0 43.56125143800103 23.696148151412345 24.563431729506082
54 18 0 43.90620473198409 14.00751016989483 18.650171845974008
55 18 1 44.203726574799944 13.768316666761386 17.666747809692517
56 18 0 43.89073284834023 12.770411703268989 17.830194988782605
57 19 0 37.06340704695788 12.266168344063399 15.195925599460491
58 19 1 38.150704531704136 12.341135608988525 15.571658019755601
59 19 0 38.50872125352635 13.243436347410277 15.109451985163679
60 20 0 12.447739336645549 44.29755800743136 30.771834272617745
61 20 1 12.918438158889883 45.17677249094957 30.943830614112223
62 20 0 13.967096249226143 45.11878759452491 31.16350389757408
63 21 0 10.254575446672717 43.36095884857097 33.296418366539214
64 21 1 10.457310738521072 43.798108222126395 34.19484341758101
65 21 0 11.02753658232711 42.95703428445245 33.9564595922531
66 22 0 29.761333668943344 18.7534108485838 9.422236007542585
67 22 1 30.628086642827224 18.29448415839947 9.191745145009717
68 22 0 30.250280563799077 17.743475778196963 10.020545909441614
69 23 0 45.541848982236225 11.949190560871218 34.44061486229772
70 23 1 46.08594056904708 11.17553834156626 34.04565832942581
71 23 0 45.208619572059824 10.620053591428627 34.04867573197612
72 24 0 37.129744578725315 30.699679475545004 40.88243575349112
73 24 1 37.758544690627986 31.471486761992715 40.80712006863506
74 24 0 37.167917661268206 31.664146978661858 39.81719941747519
75 25 0 46.180500994266005 35.45383155577025 11.663789230729455
76 25 1 45.351215046703835 35.876331291286576 11.988524964381494
77 25 0 44.39932701006394 35.54145622640642 11.64758489338246
78 26 0 23.59757348058001 13.654709850981565 28.043229972133496
79 26 1 24.300990669622088 13.194130008607656 28.639817960112502
80 26 0 25.24207038939428 12.896328684013774 28.366452914654346
81 27 0 30.079258490805245 12.315621394041612 14.949214110884999
82 27 1 33.25648531208787 12.5045885517255 17.613944377935795
83 27 0 29.97336767097548 11.836314597200278 15.657322811088825
84 28 0 9.83965340377258 25.351824259863818 26.386634817741946
85 28 1 9.231447589837284 26.020657970990545 27.2525666305731
86 28 0 10.234679715051508 26.10756293043458 27.345595736098797
87 29 0 30.9789410400657 34.672489134801346 16.9710365467249
88 29 1 31.65115060616388 35.1592380867208 16.27791285402689
89 29 0 31.92624764876926 34.18058169942957 16.21597428716434
90 30 0 48.1566402862421 15.337328732507984 44.00282309619339
91 30 1 48.06882723045975 14.87134825293851 44.933127217798166
92 30 0 47.942785905712235 15.867799575727782 44.9533347272403
93 31 0 28.58144743662881 4.007331594183334 16.951062751463592
94 31 1 29.33625830386024 4.132126970520352 17.628858363448142
95 31 0 29.239813123717735 5.180565736720423 17.960316516624502
96 32 0 9.577277804376628 39.017711910849854 10.368525190749313
97 32 1 8.825047183136153 38.98752869658619 9.715300767578636
98 32 0 9.177813304979052 38.07066720776889 9.386839199851197
99 33 0 43.51385787559228 38.119288138325615 20.835576926283228
100 33 1 43.29943465514384 37.453077630081616 20.07536724787546
101 33 0 42.70583140643997 36.71028674771587 20.670130635093013
102 34 0 1.589899499005964 34.130663486242426 11.039716118569883
103 34 1 1.087833750314401 34.72643336920723 10.350353368396197
104 34 0 0.7476783320324892 33.86308568389572 10.794441703975703
105 35 0 35.28004003205841 24.047926424266034 40.135890961174916
106 35 1 35.72060138765003 23.491217368050208 40.89203267623977
107 35 0 35.30244873647457 22.98082022885731 40.027040768640866
108 36 0 36.40390973829377 45.4459735782392 45.65756773965572
109 36 1 36.87671376796382 46.38422544709477 45.810869888963644
110 36 0 36.46216750032349 46.28211480688619 44.78553655844717
111 37 0 15.994505648917775 21.28388356762542 29.88763765462522
112 37 1 15.155101053395967 20.527322653990193 29.433752270635953
113 37 0 14.909514229281504 20.280092474019145 28.432158323732466
114 38 0 10.661758686900528 30.52928879750378 21.128137840363447
115 38 1 10.602494535213165 30.07590923541114 20.013461492328446
116 38 0 10.282920647271386 31.07003018966472 19.831523060290998
117 39 0 24.70262323682835 32.04904275819251 15.55948470517228
118 39 1 25.348582533672957 32.28422704851486 14.780198513661157
119 39 0 24.304236416376384 32.243553345245445 13.998148248132692
120 40 0 21.898562648084326 43.09584590176598 24.473860172681135
121 40 1 22.87294472562226 42.84637383137017 24.361832433206086
122 40 0 23.292114764264124 42.12962376035557 25.015490978244657
123 41 0 33.01909662365938 28.208172991339502 10.790803685079734
124 41 1 32.32574469480918 29.170498996451705 11.342795349108975
125 41 0 32.57860730110716 27.962637549840853 11.38307001392419
126 42 0 23.48527715589626 46.18508003350267 30.742320059629343
127 42 1 23.744487066616752 47.03176823950019 30.251146333960744
128 42 0 24.66428521354984 47.16788222931862 30.64283362896546
129 43 0 6.720756494927975 20.930399571339546 17.067447509648535
130 43 1 6.2759812629846214 20.517474929147426 16.19480108961722
131 43 0 7.001080200505879 19.86525384776943 16.628182740131205
132 44 0 9.714316470263842 21.227428499372774 42.76251544707944
133 44 1 9.496224417435032 21.404537109159655 43.8096925773593
134 44 0 9.28399177071355 22.40332380073478 44.00917861042992
135 45 0 29.503973595975722 4.317026037401978 2.393837646220858
136 45 1 30.009377483039955 4.079164716015577 1.5801734240847318
137 45 0 29.99110616309347 5.097165231241336 1.403682545269983
138 46 0 3.556213125769664 9.009649288074257 28.57038815078343
139 46 1 3.3605705814810154 9.229366514577613 29.577059385656042
140 46 0 3.556064852227538 10.362365644229657 29.96302444082997
141 47 0 43.36512238948747 7.269462811679443 38.734768349831
142 47 1 44.19372104728618 6.4102784733928395 38.60963476014333
143 47 0 43.38465194895648 5.972247931675872 38.23355460141738
144 48 0 4.32155040588228 18.352024377278937 4.763778819518222
145 48 1 4.302996165478641 17.70395176998036 3.9691086834684652
146 48 0 5.3187688515954905 17.616630614272125 4.205383947925953
147 49 0 15.853659588705051 21.19388696024123 38.26762684484331
148 49 1 15.448015872509188 20.756633411349533 39.16321417348662
149 49 0 16.196585369931668 21.333245876940374 39.63523768778117
150 50 0 8.49658548971627 46.71822279666044 12.844456857890057
151 50 1 8.137370497890146 45.91996073484719 13.292428907317428
152 50 0 8.97087453551998 45.419550895534385 13.840382363169073
153 51 0 20.022245231230176 34.696239852419005 12.802471433872274
154 51 1 19.066621952446017 35.29704898478804 12.887213488177306
155 51 0 18.38353564022364 36.2173642079682 14.608625449827484
156 52 0 46.64794163076261 30.12812995504143 41.32114227462428
157 52 1 46.84268509746194 30.921240894951133 41.94914762625917
158 52 0 46.905872035729956 31.756081826614242 41.4219509478561
159 53 0 7.707038146450971 16.888527047951577 9.791052515475993
160 53 1 6.922430140181848 16.128132757646252 9.641781535783446
161 53 0 7.180739061465037 15.476972378832484 10.390087323184238
162 54 0 15.976959037772689 31.715847181631098 31.16462309159763
163 54 1 15.724708294301108 31.01809852445472 30.395746963771067
164 54 0 15.615922710071839 29.597603124579486 30.537934467207183
165 55 0 11.536179101913389 26.52114959451251 17.536461123200812
166 55 1 11.195579668924328 27.38541144741396 17.848150588647766
167 55 0 11.626133993649281 27.321281033567896 18.759481917654917
168 56 0 6.219616138238269 15.173789092910166 23.730675633671698
169 56 1 5.877921402034845 14.247361885906255 23.35777857772928
170 56 0 5.614981037364824 13.951509672072154 24.256388503610555
171 57 0 14.454207774603606 15.195935378059692 34.505327886481815
172 57 1 14.214171471815934 14.20549046797639 34.28198634325637
173 57 0 14.761153105089193 14.687024870458394 33.49457703538967
174 58 0 14.03640645311928 28.893093595871036 45.207384345695544
175 58 1 13.712903624293645 28.90514409592481 46.29848676616032
176 58 0 12.88418922718332 28.570014252420798 45.54353152416891
177 59 0 15.188647281042615 11.820548966781816 29.979671693972936
178 59 1 14.121359359887721 10.632833025109408 29.732188147180835
179 59 0 14.10293856481018 10.56135553190535 30.6872954541991
180 60 0 37.334575476972184 38.55943399945177 5.67504549083875
181 60 1 41.56807420239978 36.15890905607051 5.48421169735199
182 60 0 37.14423249440057 37.91654602501557 7.102035290798879
183 61 0 16.629244988177746 18.10864380857839 36.477282769819794
184 61 1 15.66696657202 17.41965035196607 35.97675764551089
185 61 0 15.225254239161309 17.71106985970825 35.07308977198032
186 62 0 10.042550937574676 48.33222767873445 41.76373950872311
187 62 1 9.080303686557217 48.11323592553613 41.951387922836446
188 62 0 9.404017639580289 47.41196281510531 41.29759653859247
189 63 0 44.784711852846904 7.027395940496201 12.14705834787736
190 63 1 44.549476250931924 6.476157111758968 11.25185565970586
191 63 0 43.87565297929532 7.282823036394641 11.056755106390076
192 64 0 39.7097874120839 11.423647286728809 31.04734354044816
193 64 1 40.96768375097627 10.598682074979342 31.35734586779558
194 64 0 40.79288656811074 9.683080005437787 31.810097664783623
195 65 0 5.320345443035591 41.38436298248523 33.779364569633216
196 65 1 5.431484674269204 42.159446637125676 34.52044068907089
197 65 0 6.26585345865318 41.60661724855773 34.53893241382672
198 66 0 22.133243421058072 21.409451181157717 46.00904104955093
199 66 1 22.253943250107532 20.511908744136118 46.568947220263965
200 66 0 21.564733153270474 19.94712055902378 46.10690570901387
201 67 0 16.905050057366253 3.962496088158705 11.20345812430511
202 67 1 17.4202237997047 3.1945661496559867 10.451838787852433
203 67 0 17.634786505467417 4.022462296884622 11.205818924664836
204 68 0 24.80940833519289 37.682812181824694 45.94562436650009
205 68 1 24.915278072907636 38.58370856097121 47.253313174195796
206 68 0 24.376343704068905 38.226033363766554 45.910743708633476
207 69 0 46.12388952740815 41.9318281743237 37.24316352328335
208 69 1 45.97841672798079 42.79553709828823 36.744661322363584
209 69 0 44.568506744077574 43.06075504089544 36.58092559918773
210 70 0 23.07433115386643 35.605545206752154 45.61856906199018
211 70 1 23.9379467628385 35.751645987961524 46.10795943273335
212 70 0 23.761334192482295 34.776723186125665 45.78770479845249
213 71 0 46.55225822006077 22.613853977179193 21.79625931975742
214 71 1 46.47277408278484 21.99733120452735 20.970447949047497
215 71 0 45.42950160280607 22.146151801282635 21.053288566192336
216 72 0 31.033384807440136 11.385211528009648 10.985236957876367
217 72 1 30.550121304318683 11.199752302791905 10.136510119940288
218 72 0 31.082585534205762 10.412141046659183 10.42256202811374
219 73 0 19.618684952653833 40.379203099885224 10.000806136143977
220 73 1 19.934449889812623 40.551423980598614 8.996941069028495
221 73 0 19.798839728567128 39.563308464958695 8.975627375437998
222 74 0 23.50358668579255 31.99765596710057 8.493383361770261
223 74 1 23.237184041970774 32.26493875233525 7.526090169188453
224 74 0 23.89331771677496 31.463666979386506 6.801683116263692
225 75 0 8.043079632878467 18.59011728210795 20.08890211580206
226 75 1 7.640226839169938 19.370973264959105 20.921981549635127
227 75 0 7.7921436032909694 18.879668624983548 21.81468381366714
228 76 0 34.85545874313152 13.910579059120233 33.17624958624004
229 76 1 35.345075103740356 12.746095799413443 33.88544950287538
230 76 0 35.43488989072775 13.647839826707164 32.868062575061295
231 77 0 11.80839512625392 4.275386582197517 24.57394905315715
232 77 1 11.884750906542605 3.2781289631240424 24.689744009682588
233 77 0 12.840279690223559 3.4416546797013052 24.308605478241606
234 78 0 5.704049865260798 12.096229570238966 5.278157843940983
235 78 1 5.963079722194478 12.84464096711638 4.6574152491184
236 78 0 5.8114770883339055 13.869526320012275 4.845830355016845
237 79 0 10.232021160390875 12.859488930925234 22.430328435085606
238 79 1 9.786366613533449 11.950271095793683 22.644901590403084
239 79 0 10.366587756753708 11.854021070146057 23.46685227060307
240 80 0 43.76371557016971 23.06679838205248 40.262444434964024
241 80 1 43.86488384945505 22.766108803572482 41.284345076592146
242 80 0 43.61585514632976 23.71240940613997 41.586651584449726
243 81 0 18.81632186738279 14.772840804626362 24.039842470782663
244 81 1 18.470795882152487 14.19168078416619 24.747741510804904
245 81 0 17.759584813152042 14.919206506922036 25.004336230436376
246 82 0 42.577205028511564 1.0414415602041607 8.968842109940956
247 82 1 43.17825662245921 1.3232696998044091 9.664676017389482
248 82 0 41.8647995672091 1.6793025420621768 9.536941435275143
249 83 0 20.41388928831103 26.50850700231007 37.249153404442445
250 83 1 20.84946299806165 25.943531586855013 36.34190183165849
251 83 0 21.897800750533143 26.655390668225337 35.205918774323635
252 84 0 21.496708454788656 35.687773629606276 11.798542853805278
253 84 1 22.2543121558481 35.64369443886624 10.405204566443249
254 84 0 21.73296147813451 35.92246381689198 12.048881241634676
255 85 0 45.409408482494534 38.78640161174874 30.993063297838955
256 85 1 44.89452361268006 38.03414998020662 31.483266106824864
257 85 0 44.2445363671139 37.3883963957138 30.91478879230754
258 86 0 25.612803564413106 36.072051020952756 40.596844205024006
259 86 1 24.911867379337988 36.65099641442429 41.14326716645986
260 86 0 24.037221069338667 36.12644093597775 41.28864953632998
261 87 0 42.572066112971115 39.52922578693304 26.54393817357893
262 87 1 44.532667347192266 43.89216715482268 30.33780429573956
263 87 0 40.26303706253412 38.57299604799933 28.97453727099732
264 88 0 42.50482402958385 22.03861482016369 13.828781073255636
265 88 1 43.116490130657624 20.83984358106291 13.522011884060596
266 88 0 42.38745421959877 20.39772011630038 12.929278150497645
267 89 0 39.72313597213603 34.053581819904714 44.87339966639062
268 89 1 39.407439780984014 34.75728049258679 45.61854960155714
269 89 0 38.509106735919815 35.25260630179387 45.4444893789136
270 90 0 36.66926140303406 13.227860742426605 19.198372841092834
271 90 1 39.628171858453825 11.367076979112715 16.29594615026972
272 90 0 42.25219892179159 13.638071033839811 20.51919150436258
273 91 0 17.873933804454868 6.987445078805695 8.214391232366618
274 91 1 17.885599455983495 6.15747825598569 8.790089439166291
275 91 0 18.940557905366237 6.233913282091941 9.150451459159358
276 92 0 11.466033845819858 32.20335568372671 31.496640465600038
277 92 1 10.701592812447387 33.03473934746388 31.877246247596087
278 92 0 11.457246782769761 33.151497628921234 32.53735958285708
279 93 0 23.038423558199693 27.38181111109051 25.301439662434554
280 93 1 24.097931874509595 33.51258619839008 30.65470284713091
281 93 0 23.527933534508364 27.468855985158417 25.340428009239375
282 94 0 26.386685459564376 42.21998425673352 37.448035589879275
283 94 1 25.48201849056894 42.687737774898785 37.05119244189794
284 94 0 24.503876765687426 42.442210428156656 37.36656843568927
285 95 0 11.23648968174523 16.561763532010207 43.49199944747434
286 95 1 10.698767739819186 17.255762980156312 43.99639601380136
287 95 0 11.529858162102784 17.539422196472998 43.41557465588061
288 96 0 15.810726751833602 41.6770532314507 22.797919568750384
289 96 1 15.36461389368282 40.686478803456865 22.569766740027113
290 96 0 15.197107325564488 40.479828663636866 19.797090687698308
291 97 0 30.769250261574708 3.2170102716391153 6.792155037288104
292 97 1 31.411670416730093 3.016948116465252 5.973666318605016
293 97 0 31.649356391766084 3.9839449475800577 6.375409622739079
294 98 0 18.26853751992942 38.87644780197863 36.35697841789018
295 98 1 17.281040979052566 38.808860630811196 36.18045613209683
296 98 0 16.820582869100026 39.10500050839603 35.321879035071795
297 99 0 42.7697413918961 9.115846722999937 46.262842310113996
298 99 1 43.64589401499564 8.441168648613523 46.48037178100062
299 99 0 43.448369397619956 9.171990930315761 45.59769709012893
300 100 0 6.102536358350917 40.528162876942154 41.50452380996567
301 100 1 5.195227203707185 40.88210334252426 41.96862007663538
302 100 0 4.828203040509574 40.31275623363719 41.17655542863375
303 101 0 47.19742037060692 37.07668528625514 39.471223168590384
304 101 1 47.825106184013045 38.36238982275187 41.48123734525466
305 101 0 47.576704717968404 36.92447571981253 39.746336128069636
306 102 0 27.210029906608465 24.116408506997768 43.385555318316854
307 102 1 26.603321764056783 24.704061801440712 43.94342387207397
308 102 0 26.597772357143484 25.654994099725794 43.59503783576181
309 103 0 39.942804288323366 6.011633789090338 17.068221294984696
310 103 1 40.59680464013447 5.271305034179719 17.482455368252843
311 103 0 39.83355541567408 5.42869126236886 18.177420767774382
312 104 0 38.1754576529485 13.052303340259652 9.390790338242317
313 104 1 43.87377012495848 14.015593486065791 10.97228297648156
314 104 0 37.999912206565774 17.714826960980748 16.395875405274506
315 105 0 34.943474942469 38.74260443582879 11.629731374699388
316 105 1 35.94342225554306 38.73085337244288 11.394913273375437
317 105 0 36.40437402244197 37.78381121980292 11.475823995599749
318 106 0 22.9563627764012 38.33366180250705 39.92334926389312
319 106 1 23.54124779839457 39.32890985354134 40.423529183988514
320 106 0 23.46224080667434 39.67969775548575 39.47256356176033
321 107 0 26.15155248329005 35.05047398297604 6.69096787507238
322 107 1 26.406367895630193 35.95302591733644 6.281916117869326
323 107 0 27.401803860703893 36.11696572612984 6.354413328820892
324 108 0 21.19901086458857 17.042031645369832 28.985305458120553
325 108 1 22.600647422696145 15.212507496617382 31.42876586316722
326 108 0 20.862399137952217 17.080272535912137 29.05191453370574
327 109 0 44.77025002115376 25.720408666942248 41.2206071764577
328 109 1 44.678574843139835 24.864816304254862 41.762536646947034
329 109 0 43.91250800865976 24.53284116402305 41.193449543967155
330 110 0 21.968628826935984 35.05184984228435 4.007558856327302
331 110 1 22.734467790053877 35.70351734189288 3.702769037429398
332 110 0 22.965073985003272 36.530958321512124 4.239573327414837
