ITEM: TIMESTEP
143
ITEM: NUMBER OF ATOMS
333
ITEM: BOX BOUNDS pp pp pp
0 50.0
0 50.0
0 50.0
ITEM: ATOMS id mol type x y z
0 0 0 27.123747541597933 23.93634541056443 32.411891400235326
1 0 1 26.954522308503087 23.219968126153162 33.05550569894298
2 0 0 26.717597682329757 23.86232355867627 33.80024699832895
3 1 0 20.82274124485152 35.48920444593165 27.154144584847714
4 1 1 19.36233110121261 33.796666667391776 33.16298680765343
5 1 0 20.903590226721068 35.36359525507266 27.51425964733212
6 2 0 39.29588801672325 24.652696669148725 36.90427277211731
7 2 1 38.38917749616068 24.410737391991837 37.31180737903051
8 2 0 37.57823008457048 24.561581579465184 36.63470975040921
9 3 0 28.244398032176942 3.8093729815644495 38.6512667825526
10 3 1 28.673781614269593 3.3199478051973985 39.57147323056747
11 3 0 28.33786381166184 4.350693044704266 39.428476726449595
12 4 0 33.81163668108178 18.474805033234738 24.649362855519538
13 4 1 33.94502681230848 17.876504814618286 23.83266073592627
14 4 0 34.02580365712308 16.936414036342796 24.16775386857616
15 5 0 23.180712300588596 26.47278709721622 44.06987857421441
16 5 1 23.14189439086276 27.156377673696916 44.98301258632037
17 5 0 22.852831944311596 27.484532743728938 43.945503118997784
18 6 0 44.70258158485575 35.88834223289119 9.607542949547183
19 6 1 45.08380915249218 37.221532578545286 9.567483746380208
20 6 0 44.2051164036737 37.19332586617259 10.113976304916175
21 7 0 36.45606538598919 7.184838077027313 39.016961843975814
22 7 1 37.206869627383185 7.541393148031036 39.61059323090901
23 7 0 36.743174627690166 8.487119074185236 39.43814691916016
24 8 0 3.6392160384651158 15.768646376845599 10.896685703310089
25 8 1 3.618781775486177 15.267048437023123 9.890123656595625
26 8 0 4.27138846862915 14.50276201637151 9.794782464347207
27 9 0 28.9803424257042 17.81839442245152 10.814598817092564
28 9 1 31.989358840336234 15.314968346549744 7.263110960512621
29 9 0 21.96687616419948 21.557212311433943 5.810446258558034
30 10 0 34.40666587174125 15.925708595812532 12.83629085215133
31 10 1 33.921646143476394 15.913532095151329 11.487573759425588
32 10 0 32.99533519954698 16.473795606600042 11.189516269367129
33 11 0 33.336729054808025 46.13207354321209 13.20435514428507
34 11 1 34.33752526639555 46.34001162197859 13.363169219892868
35 11 0 34.46161609480991 45.67145196928799 14.1011559418649
36 12 0 40.77768177102179 38.36788981233317 11.320225965969502
37 12 1 41.72048576952652 37.97092970075489 11.157563849356197
38 12 0 41.87530506887232 37.39807736028779 12.01946756470948
39 13 0 35.39566733104053 26.80002522287038 45.833912484465266
40 13 1 35.65925807869035 25.886608392316518 46.16499576935918
41 13 0 35.53779350669927 25.346788661741602 45.3394655919208
42 14 0 12.60773560120928 28.962257679112433 23.040386003383805
43 14 1 13.360750296382315 29.201264737287254 22.439292649679224
44 14 0 13.419004219734486 28.223311091143795 22.457883677658508
45 15 0 29.45854197299468 21.77927424694521 42.9257102538146
46 15 1 30.417976383751558 21.81133619804906 43.56994400806927
47 15 0 29.941350894156265 21.819359565701003 44.40884534366178
48 16 0 43.868266466150736 35.987510249901284 44.23554921127088
49 16 1 43.553393212483186 36.10631696490052 45.20527872925997
50 16 0 42.649702631318895 36.30692482477944 44.69339254877364
51 17 0 44.25131264613715 22.555795233704526 25.421293107322885
52 17 1 44.53079571617188 23.269931283179975 24.752030607902523
53 17 0 43.57963218469806 23.69352929839886 24.56228720089186
54 18 0 43.913653580033944 14.015574437688512 18.635351148280698
55 18 1 44.202790475505886 13.767129476630835 17.668504415570805
56 18 0 43.89834882991401 12.781371348788072 17.816938525274306
57 19 0 37.0946775104968 12.264075676035326 15.209223154572834
58 19 1 38.24630494576402 12.279216475434922 15.620073433471141
59 19 0 38.507497221729906 13.226599151125045 15.11998186428536
60 20 0 12.455056406241736 44.302114245471884 30.773762754606114
61 20 1 12.919023607709262 45.17667642194441 30.943937868360134
62 20 0 13.950519657541225 45.115834352910454 31.159715838847664
63 21 0 10.23621946173823 43.384464882481346 33.299337647355685
64 21 1 10.45805305859527 43.7958587266659 34.19300570089636
65 21 0 11.033969351789803 42.96948330212383 33.98307683452157
66 22 0 29.770605215304943 18.76433101642946 9.40442153602903
67 22 1 30.62617883798984 18.29404844760889 9.193662600599604
68 22 0 30.271385909149014 17.739777226611004 10.007686145327598
69 23 0 45.558219777718406 11.94975804668948 34.43711445236838
70 23 1 46.083894573305706 11.175767588479706 34.046202054567964
71 23 0 45.22502661519645 10.61583215334283 34.04348406120392
72 24 0 37.14083741219878 30.699420058772475 40.897145414074
73 24 1 37.75640658045132 31.471177036627545 40.80469977774331
74 24 0 37.19102145047475 31.66936012704701 39.84118549665582
75 25 0 46.17325264091631 35.45072120704972 11.660748475218783
76 25 1 45.350568313992206 35.87677673207813 11.988129044907806
77 25 0 44.416225558701925 35.54186583019658 11.648880855120767
78 26 0 23.611662410607856 13.649684069674501 28.041032476679565
79 26 1 24.300777215614943 13.19403043723754 28.640418771194863
80 26 0 25.231504014797974 12.902830723095406 28.358889083582167
81 27 0 30.445913884822865 12.339716455597562 15.252874747091132
82 27 1 33.2105995766899 12.498556631187903 17.581031835404698
83 27 0 30.34079971384655 11.90872760313078 15.880306054735279
84 28 0 9.803136879633751 25.369738375116746 26.410192766944174
85 28 1 9.234416284438831 26.018568108740283 27.249842953490745
86 28 0 10.223681326564547 26.123078502350424 27.365628090884606
87 29 0 30.9824971879688 34.6967210503606 16.963293657610166
88 29 1 31.650178776055736 35.156894184997206 16.279224939168298
89 29 0 31.93824638783927 34.193857338727604 16.20273921082899
90 30 0 48.16021946993436 15.30831239477104 44.002818638727845
91 30 1 48.06881617626878 14.873650772349595 44.9313821102201
92 30 0 47.93938924774587 15.859978800330982 44.98126212526304
93 31 0 28.58908295900874 4.005535842520137 16.956718130911746
94 31 1 29.33553415549539 4.13352944999657 17.628806347242758
95 31 0 29.24376130972166 5.159917113154319 17.9554953695498
96 32 0 9.568821186459951 39.02958332270294 10.369507277444901
97 32 1 8.826403625782216 38.98620497759107 9.715538854837831
98 32 0 9.16456810825769 38.0799714944352 9.382043581437124
99 33 0 43.51500306745186 38.11615971641444 20.82325173794335
100 33 1 43.298614412643474 37.45247615761013 20.077230815186272
101 33 0 42.71781047812443 36.723039322189805 20.652646115018374
102 34 0 1.6109961240355035 34.15896444590752 11.030327689930573
103 34 1 1.0881871642321934 34.72393688917864 10.352332388679619
104 34 0 0.720923533259032 33.874726977687516 10.772165629786635
105 35 0 35.29100793448834 24.06673104879784 40.15935633462201
106 35 1 35.718990351411506 23.490972120641825 40.88895565436877
107 35 0 35.31718867005344 22.9658951564959 40.05287075821114
108 36 0 36.4160749683003 45.4529914793115 45.68268480384712
109 36 1 36.874969473718174 46.38237428544431 45.80831344096234
110 36 0 36.47791072873227 46.3047171962629 44.80132327776272
111 37 0 15.970722833293141 21.262135021073515 29.864267308336657
112 37 1 15.15580591200809 20.527971947724897 29.434579736334506
113 37 0 14.922018443871838 20.291462760421744 28.442277229433895
114 38 0 10.664236180492393 30.503507614773575 21.098986112368177
115 38 1 10.60216260610714 30.078629862381884 20.016174942699255
116 38 0 10.285577177027347 31.052378339352 19.817133899459293
117 39 0 24.720474168943298 32.051961989698846 15.559476348626132
118 39 1 25.34456791123326 32.28381853875225 14.778701294276466
119 39 0 24.350630075383975 32.24714632374338 14.022143079648552
120 40 0 21.90553268596935 43.090175878665114 24.477533455789846
121 40 1 22.87316536550318 42.84614864401576 24.362000779837786
122 40 0 23.2816195181743 42.1388941227671 25.009115809538425
123 41 0 33.00283865124207 28.265570678113924 10.793926747858313
124 41 1 32.328563487788685 29.1646064641814 11.341109471112643
125 41 0 32.54977027302536 27.99951117802273 11.406915907088766
126 42 0 23.481449092307408 46.19151652161975 30.73547850316146
127 42 1 23.745088333063812 47.031085447687836 30.25197737769561
128 42 0 24.658494910734568 47.172381058356926 30.636382294936315
129 43 0 6.700629334977913 20.944356993843904 17.052318759304054
130 43 1 6.278180245054578 20.517002869249506 16.197235726506488
131 43 0 6.985996567505797 19.858874863011675 16.60427623839493
132 44 0 9.710357255685606 21.232136661083146 42.78004076976596
133 44 1 9.496300470485407 21.404943051915232 43.80885334010386
134 44 0 9.286674570164227 22.392288008859698 44.00507893169155
135 45 0 29.505368073266435 4.299635404242781 2.3949991678190954
136 45 1 30.00877613954678 4.081056844210321 1.580803234559672
137 45 0 29.999296801001254 5.084307947565817 1.3923308078161007
138 46 0 3.5552126222840217 9.01735799912618 28.58231252198678
139 46 1 3.3609404948875747 9.231027364461314 29.577292033206877
140 46 0 3.551141871739023 10.328079551502661 29.947382819160246
141 47 0 43.399770642685105 7.252480593720763 38.73692818642329
142 47 1 44.1906063048055 6.412271147192019 38.60962304059175
143 47 0 43.399849163928955 5.9573308046388025 38.231587798183895
144 48 0 4.304682768959303 18.348836318817735 4.754210399821749
145 48 1 4.304706782703898 17.70475620705139 3.9706553349428306
146 48 0 5.308234847592062 17.607035405448965 4.190154817451134
147 49 0 15.837219724026033 21.179427109363665 38.27386564584912
148 49 1 15.449961738645465 20.758363260396532 39.16237320984991
149 49 0 16.181889587919347 21.320130289898252 39.642545626567355
150 50 0 8.494699887445202 46.71563951560337 12.845724179833072
151 50 1 8.138595078055781 45.91949655753361 13.293051563485653
152 50 0 8.953165664486198 45.429567922226404 13.829155388542214
153 51 0 20.00186359002088 34.71148037398707 12.812542368329039
154 51 1 19.064319546726594 35.300769014617224 12.895156335944185
155 51 0 18.440497215024674 36.14256079447045 14.471648400768542
156 52 0 46.649902962291605 30.136207128686763 41.32735055806022
157 52 1 46.842582545925616 30.920965996762387 41.94862578987071
158 52 0 46.90557224981095 31.75240703916165 41.424087066237874
159 53 0 7.689881244248641 16.876816923032173 9.783972698253457
160 53 1 6.923951849134763 16.12871957651355 9.642766356766291
161 53 0 7.173486942126374 15.479285473702145 10.381454261092562
162 54 0 15.973895082184097 31.697742210171107 31.159363552357682
163 54 1 15.724480900664101 31.014817146271977 30.396171538694382
164 54 0 15.622627133755264 29.6681627107865 30.536357910907157
165 55 0 11.530661604303843 26.524999071647283 17.528625379025637
166 55 1 11.196343715769556 27.38461841903865 17.848906535475873
167 55 0 11.619415457793451 27.33006816116112 18.755145405313353
168 56 0 6.217740907900734 15.16426217563397 23.715988237046894
169 56 1 5.878215902337742 14.248554516708325 23.35916402505557
170 56 0 5.612015294164247 13.941992778377417 24.24894301934496
171 57 0 14.439719926731446 15.18178264109058 34.52513607974605
172 57 1 14.215663402721923 14.208103208421491 34.280780322790115
173 57 0 14.75167014822711 14.659179583791518 33.4939876830586
174 58 0 14.04952729856566 28.900424598308987 45.23897771977112
175 58 1 13.711555052890624 28.9042865829863 46.29422796693892
176 58 0 12.892643371563707 28.57640745116004 45.58008206942354
177 59 0 15.124294192582576 11.749267839512 29.9584533708508
178 59 1 14.126099231849429 10.63809113779537 29.733565646163054
179 59 0 14.091449328530738 10.5484720842023 30.686450348728055
180 60 0 37.8425198967558 38.2724370819374 5.650214303574758
181 60 1 41.502897288759435 36.19018519017491 5.497872324284263
182 60 0 37.67908306472631 37.703103848059335 6.908210646955364
183 61 0 16.59259696141165 18.08532930831642 36.45496499158018
184 61 1 15.668667634845054 17.421023475198105 35.97747156711732
185 61 0 15.234786330420745 17.712520168087522 35.08401521778042
186 62 0 10.034854170275484 48.34872637363745 41.779150901533285
187 62 1 9.082216934872353 48.11247031450674 41.95009935248779
188 62 0 9.381104361150856 47.40772136869259 41.302806681126825
189 63 0 44.79016196948175 7.008441497076376 12.136291695419017
190 63 1 44.54875010232104 6.478504279732103 11.253109109035515
191 63 0 43.88184382723117 7.264256528632161 11.047468935873361
192 64 0 39.77947097064197 11.376112083725637 31.06539887755574
193 64 1 40.96342659889495 10.600981117920307 31.356531743202854
194 64 0 40.79129998789617 9.69382078723658 31.805037535962736
195 65 0 5.303345359526247 41.40439044128868 33.78661519877958
196 65 1 5.432311410817579 42.15711085878697 34.51890626931659
197 65 0 6.269556745195342 41.623941696695425 34.55622910799554
198 66 0 22.13934431226954 21.399019012129994 46.02054956677842
199 66 1 22.253191398072413 20.51266024600508 46.56778689936459
200 66 0 21.570645877068635 19.945500463209722 46.11397762360218
201 67 0 16.88926780556431 3.928039416352443 11.172598944264791
202 67 1 17.419242596082047 3.1981983724756122 10.455278975059526
203 67 0 17.666272622224064 3.9988692562373265 11.181609681657513
204 68 0 24.83130989513588 37.722086256618766 46.0315606784262
205 68 1 24.913054313146148 38.57871224971675 47.243425253966414
206 68 0 24.38968297206594 38.26577582969504 45.982722053891145
207 69 0 46.12195280485819 41.93780636653079 37.239705974287254
208 69 1 45.97412354935592 42.79602052695048 36.744350762075975
209 69 0 44.63913578315855 43.0470596297296 36.58936422852849
210 70 0 23.073445795539424 35.63479640486091 45.624919813775726
211 70 1 23.936408844466076 35.749648140763334 46.10668529605954
212 70 0 23.787154322370483 34.780350286444936 45.80216574713269
213 71 0 46.56573411200839 22.605920085768524 21.787214984095293
214 71 1 46.47117372847562 21.998457441618626 20.971760122477093
215 71 0 45.44171036103842 22.136021883113347 21.041197900609365
216 72 0 31.020544832927637 11.408795144072533 10.981346155664129
217 72 1 30.55161283079239 11.198868668466464 10.138186031657797
218 72 0 31.07151618352481 10.402603145071632 10.399661607862067
219 73 0 19.624815058366472 40.39855188524786 9.989236077399811
220 73 1 19.93368063715328 40.54989475078944 8.998829235852803
221 73 0 19.804992325339928 39.56849754806272 8.956968458710039
222 74 0 23.49855610134423 32.003098418930854 8.48379491754957
223 74 1 23.239028056020707 32.262723614906044 7.525180936670282
224 74 0 23.868827118819684 31.49343689199291 6.82579288489433
225 75 0 8.030035380237242 18.615894377872024 20.112868244075752
226 75 1 7.641220800439048 19.36888578491258 20.92094580476048
227 75 0 7.789315020373803 18.887302550183588 21.80735799095035
228 76 0 34.86062178180218 13.854087468535628 33.22921359291917
229 76 1 35.34349387237218 12.752971074799428 33.8799545183143
230 76 0 35.45500666989964 13.594336976557923 32.90302217001093
231 77 0 11.792807614331513 4.26799753356805 24.58084996876078
232 77 1 11.886223670378767 3.2796965302751735 24.688966015141894
233 77 0 12.832303225766598 3.4239563473392898 24.31415142650577
234 78 0 5.7021985966323285 12.108093752091571 5.280536080360791
235 78 1 5.963313805199987 12.844867141839128 4.65690856469821
236 78 0 5.8096127420586585 13.853941457556989 4.85151962490826
237 79 0 10.220516329319045 12.850793409107432 22.423149487442338
238 79 1 9.78769162732545 11.951436252534407 22.645572769277344
239 79 0 10.357006722468418 11.844000948772722 23.463265868766772
240 80 0 43.76791510306552 23.051968435516017 40.27477243407978
241 80 1 43.86705631701836 22.77485137062225 41.28457738475525
242 80 0 43.63035318944721 23.71221886629303 41.59701034830643
243 81 0 18.8241671426086 14.762175223578614 24.03865935185214
244 81 1 18.46999389379615 14.193345206199094 24.747502603969743
245 81 0 17.764567667885512 14.90324284358568 25.009319328728882
246 82 0 42.60654698999636 1.0203888392425546 8.952923581613474
247 82 1 43.17268026176878 1.324880705739566 9.66427975440897
248 82 0 41.92466872932229 1.6745305894482754 9.559183169560532
249 83 0 20.428427021888247 26.500128194883086 37.22417130360811
250 83 1 20.85284470004371 25.946779520840764 36.33871839770769
251 83 0 21.82915324890819 26.61180587937207 35.281837196033564
252 84 0 21.522341223680737 35.6699841796383 11.706501717329893
253 84 1 22.24941677961039 35.645228073298064 10.4176459587035
254 84 0 21.785843359311176 35.91582399989733 11.941823071477641
255 85 0 45.401434058187974 38.77664014091001 30.99326716867642
256 85 1 44.89427865213791 38.03392873610499 31.482955094188963
257 85 0 44.25643268294248 37.4016567724164 30.919559355240086
258 86 0 25.602381055574195 36.07959207017093 40.6045139048659
259 86 1 24.91189759642378 36.65033631597769 41.14287473757597
260 86 0 24.046378726579498 36.13103855900369 41.286752724755736
261 87 0 42.81877633522472 40.078268917215176 27.021394046745183
262 87 1 44.48285514909008 43.81501522104476 30.29699295347323
263 87 0 40.81331434786222 39.25842147859639 29.15003824433751
264 88 0 42.53510815024711 21.98483161712543 13.81644517819125
265 88 1 43.113893378048544 20.843161072830064 13.522405884741222
266 88 0 42.39871796210989 20.39843958762453 12.93530522846361
267 89 0 39.71478220380891 34.06541290119259 44.88278616683876
268 89 1 39.40733581049583 34.75703185225285 45.618079615543465
269 89 0 38.518965308800524 35.2447184333229 45.44266843817761
270 90 0 37.01499877860014 13.011037759286454 18.854745725420113
271 90 1 39.52963178264415 11.461099162782574 16.30023489771298
272 90 0 41.92344343600358 13.360151685132324 19.995713479882465
273 91 0 17.86703666140962 6.980037741050971 8.216788764689026
274 91 1 17.887458289125544 6.1583532432018435 8.790213737020615
275 91 0 18.91770821387995 6.22725397296274 9.146090077379656
276 92 0 11.434799355006174 32.22390457508278 31.497374938915794
277 92 1 10.704510929850034 33.03261552969212 31.87695425843885
278 92 0 11.441740515083024 33.16494886352349 32.541312408873324
279 93 0 23.17724528991074 28.190413413170166 26.00756569018144
280 93 1 24.08451266434476 33.412354908228224 30.566877259555145
281 93 0 23.6038739188039 28.263950862593642 26.039483447902995
282 94 0 26.36577550088402 42.22395521806236 37.44564168045644
283 94 1 25.4822929857697 42.68764191973756 37.05126782859006
284 94 0 24.520431785953487 42.43983732954695 37.36770035629129
285 95 0 11.212972114849185 16.544318644245084 43.50705547047284
286 95 1 10.701208627965046 17.25530960905124 43.99450607324214
287 95 0 11.514363612066015 17.563947537805028 43.430774140189584
288 96 0 15.801550474738614 41.65662219574289 22.794134755385052
289 96 1 15.364161373234108 40.686493272434014 22.552977484147338
290 96 0 15.213518512358998 40.50002822359094 20.069500402715395
291 97 0 30.76833619880355 3.1942625109780565 6.7777326029341
292 97 1 31.41098357384017 3.0191747178911603 5.975913910279117
293 97 0 31.661296046025168 3.971036207909627 6.353979674871366
294 98 0 18.263249054470162 38.879991605231496 36.34678092373776
295 98 1 17.280590248726913 38.80862489880966 36.18086485373633
296 98 0 16.83306704053883 39.10524863810865 35.32554816120222
297 99 0 42.77512053427058 9.090941609470113 46.29408646692694
298 99 1 43.643599653081196 8.444380084688506 46.47772120178469
299 99 0 43.4796978742349 9.145509130054565 45.60887111907583
300 100 0 6.097277907026756 40.5426726188 41.52434575220249
301 100 1 5.196400081955849 40.88051816100997 41.966470645508245
302 100 0 4.8146909396499264 40.32360315692586 41.19113487505123
303 101 0 47.24628960938307 37.20134481507258 39.6525476567549
304 101 1 47.82006839834588 38.34731995353819 41.460298245248055
305 101 0 47.608469730665654 37.04094402282491 39.90003091899328
306 102 0 27.205643389707003 24.12166062913621 43.38920830771487
307 102 1 26.60355640603254 24.70420473320197 43.943071809288554
308 102 0 26.598461691652098 25.647441138830434 43.59698137661537
309 103 0 39.96499758351065 6.001293656795745 17.05762366049115
310 103 1 40.59427465591927 5.272995621452566 17.482807286520416
311 103 0 39.85184340216248 5.411946112141912 18.182404612506375
312 104 0 38.89027205160859 13.174819684972489 9.591699923125509
313 104 1 43.78019264678796 14.038846288694199 11.005046105383503
314 104 0 38.782353032946006 17.2202728375349 15.670720993886444
315 105 0 34.95327395956891 38.73930581215355 11.628069593259951
316 105 1 35.943365367411374 38.730334320504404 11.395030561679421
317 105 0 36.39544588740344 37.795423274600054 11.475608762786504
318 106 0 22.977206853588147 38.36369085104153 39.951194660611115
319 106 1 23.539458115476982 39.326201633847575 40.421029261886716
320 106 0 23.470803328439867 39.69138213619292 39.48516392235216
321 107 0 26.15484920299558 35.05853432789775 6.687473139097856
322 107 1 26.40663340991192 35.952660457186575 6.282141041816988
323 107 0 27.394472383042576 36.11482836526247 6.35434156556574
324 108 0 21.3542030288865 16.84746189802049 29.242824541122342
325 108 1 22.57950424581511 15.237354092490492 31.39640720572729
326 108 0 21.045415256519764 16.877407293108917 29.312291141020907
327 109 0 44.777415725407074 25.716106218818982 41.23145874361706
328 109 1 44.67449745368026 24.857925764706696 41.759568715568136
329 109 0 43.917144919265624 24.522502286791344 41.20369132763659
330 110 0 21.977244025708686 35.0642764569311 4.009197626241265
331 110 1 22.734368079649506 35.70325147833674 3.702606506806974
332 110 0 22.957924531166928 36.52282548806206 4.2403656270701315
