ITEM: TIMESTEP
15
ITEM: NUMBER OF ATOMS
66
ITEM: BOX BOUNDS pp pp pp
0 50.0
0 50.0
0 50.0
ITEM: ATOMS id mol type x y z
0 0 0 27.346283760502654 30.702426482333742 30.975520401858223
1 0 1 27.12698085021227 22.031337551674554 32.60735304294635
2 0 0 23.84885025327695 36.06783643285868 42.34284572209237
3 1 0 22.42246796957315 41.807050632611244 18.27748580340719
4 1 1 27.63997279425329 45.085025642309645 4.945219683718105
5 1 0 13.30301286401713 17.906454601730832 27.503954577539016
6 2 0 39.1242245697384 36.11473934838567 45.17357427842561
7 2 1 39.15372910398634 23.73694248821477 38.517221702853234
8 2 0 18.573869557483356 28.776676113635165 19.068147716668953
9 3 0 38.8578797048512 13.788245836527505 35.846989048002996
10 3 1 14.414727697284798 37.27170398249481 23.18811729201937
11 3 0 22.96199717222502 14.849920784032953 27.905317823936972
12 4 0 31.887740477328787 26.052574672042915 37.94548052247086
13 4 1 34.02966004598135 17.93421715169243 22.680388789036602
14 4 0 34.580230717055684 8.463796402673026 29.319744611302944
15 5 0 27.040733588998723 13.487022697041015 14.432957669430573
16 5 1 16.314259357337427 18.725472181416414 27.475466267775854
17 5 0 19.73584246416242 37.81129103998029 13.664945407789075
18 6 0 11.232505702672945 13.54935812620862 25.292256351414228
19 6 1 12.50796158601185 22.569970451914838 13.146848755944948
20 6 0 9.66500185258461 11.964066488377567 25.370689196845852
21 7 0 19.387374736867915 8.204371383799563 27.043381108839128
22 7 1 39.43424469146884 5.981620553331688 40.93551381693728
23 7 0 18.17363497557927 32.42322529768978 30.21279440726439
24 8 0 31.394187712019807 24.189552151712622 25.452008852596013
25 8 1 3.32377339509884 14.329814508677465 6.941836720330752
26 8 0 10.421679674746146 8.957236496371436 12.499004194803705
27 9 0 23.3092983002494 6.8558091446347555 31.711879742459896
28 9 1 27.624756967333596 13.402662488178764 26.810339873757147
29 9 0 13.386142782323219 23.017021287408596 39.00930136282443
30 10 0 23.186128713762404 26.377538676565848 7.689172187667405
31 10 1 35.21890055237522 14.590699145733804 9.837196792426939
32 10 0 31.62665787709477 6.072620595394551 29.50502940753307
33 11 0 13.72267847767389 39.06630228451068 13.18576172667671
34 11 1 35.74626484581252 47.367675909185174 12.826359242198397
35 11 0 31.535676302511522 36.2951850344108 22.70771853552267
36 12 0 19.570475632865474 45.78859259010854 24.561082474461976
37 12 1 26.23786716598345 49.43603512925705 39.94212099436028
38 12 0 15.995608414236184 21.525635392078975 16.42053653107205
39 13 0 31.669062531949745 37.13427934829212 39.348411855701826
40 13 1 36.010692567018154 25.408132619756582 47.11988351241658
41 13 0 33.62708573889235 22.675044138561173 36.546221951944275
42 14 0 5.8557053213571795 20.766015774416505 28.82830677141274
43 14 1 14.027805198520158 30.190033865034483 21.855261285560626
44 14 0 9.495135116580942 20.598244775036175 26.009098097828414
45 15 0 30.5649928469023 26.18541933080438 36.970338882631886
46 15 1 32.227410926319884 21.732010071266085 44.55622133731975
47 15 0 23.40026652238645 21.746397907274947 44.62371684225945
48 16 0 43.274113461423056 45.11115707410483 23.277148135633112
49 16 1 44.96536933286609 36.0081473253362 47.97784681662687
50 16 0 21.815723274730253 40.54387793524455 23.51199507978991
51 17 0 30.65987998008244 17.436259263438405 39.38604438896879
52 17 1 23.79309334793852 41.56216034934804 44.13668925893071
53 17 0 13.587035347764548 35.346418096762484 27.02318825659378
54 18 0 11.336437192498598 34.4541701196905 9.688686325300027
55 18 1 42.47886130712652 1.7373835452528863 18.86452031698065
56 18 0 38.66756309745326 5.982379959216737 23.37805346902182
57 19 0 16.453288067768028 10.561364147469664 6.906544678197276
58 19 1 38.99198060784567 11.713074154553073 16.53890625736319
59 19 0 43.75460565242738 26.39004578149111 7.269900290530594
60 20 0 9.609594215234324 36.57398846660503 29.54379554809388
61 20 1 12.148518886692003 45.97982482979205 30.788344569338737
62 20 0 21.344697960925295 35.69031138646129 34.383122321198336
63 21 0 13.345792999216343 29.83876275320901 20.17296451355667
64 21 1 9.801732043598088 45.77393760127274 35.81718708657108
65 21 0 18.900308507020817 24.557763307113394 21.602431268723166
