ITEM: TIMESTEP
18
ITEM: NUMBER OF ATOMS
66
ITEM: BOX BOUNDS pp pp pp
0 50.0
0 50.0
0 50.0
ITEM: ATOMS id mol type x y z
0 0 0 27.3269437556684 29.967436164178963 31.116398964000638
1 0 1 27.10968704001794 22.156367019950245 32.653511101151295
2 0 0 24.144890882208045 34.80235563108164 41.463438395416986
3 1 0 22.884711653881297 42.092971827048714 17.092838217219647
4 1 1 27.527677505989377 44.908940591100446 5.150414405575943
5 1 0 14.637471679007714 20.43789782060623 25.40547771820451
6 2 0 39.12168827645616 35.01370266070626 44.575914673618975
7 2 1 39.03505099469323 23.834664292070507 38.442163054043014
8 2 0 20.475258028308794 28.314164000135396 20.866743463288135
9 3 0 36.585917964794135 15.96732394401321 34.67043734111809
10 3 1 14.60537592170817 37.00723416123729 23.28851517743108
11 3 0 22.183587686203253 16.902367115839066 27.475503173544077
12 4 0 32.081311993317364 25.317142058765036 36.56847671030996
13 4 1 34.020609795682844 17.928183723118064 22.802594848024548
14 4 0 34.531467713696586 9.295764662823352 28.741451187645904
15 5 0 26.0721120923362 13.965285498465612 15.608294504320705
16 5 1 16.394245279332015 18.805075921895384 27.323042607355795
17 5 0 19.424710647780877 36.05936460722741 14.928395876037536
18 6 0 11.346129369517543 14.354318869004281 24.20815755737957
19 6 1 12.484899756711233 22.46015934944662 13.283166322255013
20 6 0 9.920366853774695 12.916083160904675 24.273706163704706
21 7 0 21.22255388677183 8.007139823536656 28.316168970451688
22 7 1 39.19629706893859 6.147600300708199 40.79386588542602
23 7 0 20.14561780367477 29.964780770291522 31.20637350673777
24 8 0 28.786478822308883 23.271673066173744 23.732649480661205
25 8 1 3.5248238354493933 14.35790659218206 7.079153079049933
26 8 0 9.812581375318022 9.425642252365915 12.021301743637222
27 9 0 23.6755425032044 7.418582543373421 31.29498523774538
28 9 1 27.520749943265574 13.422400554174843 26.90587502720309
29 9 0 14.684010249492072 22.13843696675256 37.89763382085623
30 10 0 24.270337530425547 25.312458035202997 7.887834018151141
31 10 1 35.13081526502591 14.608442950763948 9.937117224963211
32 10 0 31.951812178866145 6.853801424861533 27.707637776097897
33 11 0 15.740686153387536 39.82459491548306 13.15526834894081
34 11 1 35.59689648932941 47.258396405812995 12.883602531825971
35 11 0 31.907562627859825 37.285364560575395 21.822319533428843
36 12 0 20.169314781766772 46.11048819873192 25.942223618673452
37 12 1 26.142964121087807 49.25241727164829 39.71479576378711
38 12 0 17.302920729961965 23.94488421563493 17.86230604018536
39 13 0 32.05638281578875 36.086064411073615 40.040255640957426
40 13 1 35.97353479385836 25.458558872613082 47.019029210391075
41 13 0 33.83430314966312 22.91645293180908 37.468057766369604
42 14 0 6.58294468939674 21.603987023466285 28.20772289910947
43 14 1 13.956054919660716 30.0865527751989 21.915061592186408
44 14 0 9.889936688873604 21.435076473174497 25.647111695981923
45 15 0 30.705023555243656 25.80548310754673 37.61753754911691
46 15 1 32.1716915258911 21.755775351673726 44.516226439461455
47 15 0 24.151727766149 21.74607645847065 44.61642846951775
48 16 0 43.423844160106526 44.2740416490876 25.545471573849746
49 16 1 44.82166111227532 36.08664759330936 47.69446085884556
50 16 0 23.965324467032406 40.12498925241964 25.777847116511555
51 17 0 30.025642435399895 19.65384850838442 39.818650130140625
52 17 1 23.774463196071153 41.388524604480004 44.01220388268219
53 17 0 14.519354685339893 35.90699912989867 28.582350522081292
54 18 0 13.89473243713889 31.573672387959714 11.287557970228184
55 18 1 42.275463348522266 1.951207213889996 18.83894042782588
56 18 0 38.97593366638616 5.638440890839592 23.002752929205755
57 19 0 18.524478905463404 10.67086443274365 7.788839893499447
58 19 1 38.889821819656326 11.78924924185329 16.431497790561924
59 19 0 43.317957257751196 25.06174296320638 8.106142420712242
60 20 0 9.830441777612721 37.38253466002091 29.651854269803888
61 20 1 12.1859818954594 45.87210121474968 30.801632065204604
62 20 0 20.524456041452556 36.605344881083305 34.062434303784656
63 21 0 13.04893392380241 31.27285796698622 21.625627893179452
64 21 1 9.874271520579136 45.561127994009304 35.6463559052981
65 21 0 18.062484376178585 26.50950843327999 22.908860692692794
