ITEM: TIMESTEP
2
ITEM: NUMBER OF ATOMS
333
ITEM: BOX BOUNDS pp pp pp
0 50.0
0 50.0
0 50.0
ITEM: ATOMS id mol type x y z
0 0 0 27.42908455884152 34.93783100676103 30.261485073187462
1 0 1 27.225280786317942 21.319543417539013 32.34500598773152
2 0 0 22.193026945262964 43.221819136580095 47.2540954702897
3 1 0 19.70673781601107 39.97122136124467 25.116398562871986
4 1 1 28.279301241842255 46.08726035652087 3.77643669964175
5 1 0 5.7877875046749585 3.7067310457139717 39.365092031823856
6 2 0 38.96517741668698 42.31839967856193 48.35404101763909
7 2 1 39.8282435170317 23.180781890768802 38.94448441051361
8 2 0 7.93088325972144 31.469495296917334 9.056438574774607
9 3 0 45.232915460782465 26.83146727213126 20.856106753613233
10 3 1 13.40865247410959 38.526103544491704 22.829608601621644
11 3 0 27.527646947389137 3.169649451141081 30.404592531984
12 4 0 30.808604336733733 30.09291041190159 45.7077168046486
13 4 1 34.081082798167444 17.968757076780708 21.985088079207326
14 4 0 34.83581927622888 3.8714545249842214 32.68154609290624
15 5 0 32.493580752836976 10.970756413882556 7.734558828437823
16 5 1 15.858931409568186 18.27274288203531 28.343395270177083
17 5 0 21.56846935481723 47.57493658684064 6.481182441453728
18 6 0 10.572620708538045 8.951327123949943 31.46817311137559
19 6 1 12.639320553862104 23.19537599764639 12.370505695140395
20 6 0 8.223510469447596 6.556027321579676 31.616371531099606
21 7 0 8.922391834957764 9.539754767905269 19.820437278381814
22 7 1 40.789207041953475 5.036585031077107 41.742265223412886
23 7 0 6.958184169521076 46.20709868050162 24.528830293405473
24 8 0 46.05099635373176 29.283663991253928 35.12301462726251
25 8 1 2.1810483294198137 14.171345205248338 6.161786043063476
26 8 0 14.076095287529748 6.407786224929854 15.336006988347858
27 9 0 21.142305930461344 3.778879301370499 34.146255956931526
28 9 1 28.216487470278533 13.290930522018918 26.266813671733694
29 9 0 6.086024091351387 27.883214694996987 45.27175820654476
30 10 0 17.088631724853474 32.26594897273305 6.743121200271001
31 10 1 35.72013350971323 14.489737580408852 9.268706425860861
32 10 0 29.70559479483833 1.7995826636461494 39.546859050423414
33 11 0 2.3887273128744897 34.727765634188096 13.43932232132499
34 11 1 36.59642206455244 47.98983556346469 12.500362944713046
35 11 0 29.267213508692606 30.6782480964856 27.67094703023741
36 12 0 12.986285151936196 46.891661953571884 21.918959030033086
37 12 1 42.205334965051094 34.975444909243464 14.994744319979132
38 12 0 40.7825313729628 20.71623347049693 42.342225002922994
39 13 0 29.48135553251803 42.98168349231566 35.3902387649457
40 13 1 36.222133464751394 25.12130079147351 47.693950277395096
41 13 0 32.43171845001021 21.416536329460424 31.32040597018959
42 14 0 1.7449542926722794 15.995471679218742 32.337925529346656
43 14 1 14.42709591946359 30.78620716034876 21.50557307108684
44 14 0 7.216318139806799 15.830667520553346 28.093892319625347
45 15 0 29.71517888019394 28.31290821584824 33.34690525892224
46 15 1 32.54434511150267 21.596849105634266 44.7836924002472
47 15 0 19.180046110306055 21.781347409485242 44.608066738796936
48 16 0 40.64099997777133 35.225826700475395 7.666509827229656
49 16 1 45.810349940145535 35.73869894774072 49.62126554567546
50 16 0 9.761271307457593 42.948689149683034 10.606578945428382
51 17 0 31.337017472906172 7.49858311842333 41.10680690324327
52 17 1 40.19518689908362 28.397064767879787 20.448450099463262
53 17 0 5.632227818057801 34.4910682955466 22.542822724231126
54 18 0 36.4992408748722 40.782300074575204 46.94929746588713
55 18 1 42.743423908158285 0.7719398859526744 18.141045905015645
56 18 0 36.8508220211971 8.138128368209967 25.604196412891973
57 19 0 4.900153084552224 10.072906161852549 1.8892873858788048
58 19 1 39.57324557793907 11.279573631506242 17.15019192746289
59 19 0 46.00717498870076 33.81503259635562 2.507422831185613
60 20 0 8.444240234947621 31.96164138199499 28.966494574538626
61 20 1 11.935548906894823 46.59289857197994 30.712765228549703
62 20 0 25.917823370256635 30.49251236841009 36.16908400179559
63 21 0 15.228101293475687 21.51762714288576 12.051456223171986
64 21 1 9.389027625300054 46.98570640728803 36.79046987993254
65 21 0 23.622830316797756 13.490414804343958 14.151496022565835
66 22 0 4.771356270696349 21.552887355197555 15.204389296659256
67 22 1 34.57849710299929 18.839133101616053 9.096326534327401
68 22 0 3.217968010358045 4.281455351813226 32.49157982169071
69 23 0 24.257022592875455 25.889228257684074 44.148046521541765
70 23 1 49.28497642069583 10.867284648292571 33.214267220505185
71 23 0 15.306074095346522 1.61250549167196 37.63927106710122
72 24 0 17.495503671661446 19.891011127511383 30.2432807430006
73 24 1 41.356030660239774 31.435391849773502 43.453715799487966
74 24 0 15.324348293896941 39.400829681629574 11.3133636508921
75 25 0 47.627247860179644 34.46123245406371 10.85226696791835
76 25 1 47.23394879816886 36.498116701157656 12.650186412098765
77 25 0 12.831781925443883 26.53738614446456 1.9566122636759162
78 26 0 11.109045095717885 20.812207757325083 19.31713937771754
79 26 1 23.20521372230128 13.878828369124419 29.28865666254438
80 26 0 42.03431235786221 6.340115586249814 26.06850561476764
81 27 0 7.879001761693574 34.27278681836384 19.06744585467753
82 27 1 28.177223526250575 9.293790638341557 7.435113204991189
83 27 0 24.629090240764768 17.274508839652682 44.673778599379524
84 28 0 36.25983050564664 36.85241864320362 44.242788096352854
85 28 1 4.459082260830789 27.597634511114485 29.218974819126924
86 28 0 45.496094871369294 15.379289800560706 13.061845435359968
87 29 0 6.708015475228046 3.10358146725594 44.551285924367775
88 29 1 33.37480491388406 38.98249753352583 14.244225180309252
89 29 0 29.56366250263278 5.318846757679446 23.683969916351952
90 30 0 48.827560203652084 41.920596449446435 18.71428903246892
91 30 1 48.077780610847974 11.807994921483411 47.29478753917915
92 30 0 47.128295237430024 38.29824921684393 32.45502172962847
93 31 0 42.96037609100888 13.835850571472248 40.977146890369745
94 31 1 30.853697844744108 0.8924578813865657 17.477691002524725
95 31 0 8.803576416864999 46.215996489677515 23.53155047154194
96 32 0 23.828878442190884 32.49881825605182 17.911857553379363
97 32 1 6.978770841094831 40.96324135849387 9.507795644027464
98 32 0 24.46616825615227 12.973665605900903 5.163833724000981
99 33 0 43.23558960268648 48.060198982176054 46.198476445215064
100 33 1 45.16716607161146 38.6710987006197 16.75357653981274
101 33 0 6.498036138600871 21.448895881813762 11.913746007108108
102 34 0 6.26630921887588 4.791499107821835 34.56889768537786
103 34 1 0.6063414250864624 38.27096624863891 7.551115841246266
104 34 0 3.775364409637444 6.489631022054532 32.05296943440515
105 35 0 14.076613861881963 21.926141799386833 27.023395896698176
106 35 1 42.77444106623187 36.16112059622323 13.586428046702343
107 35 0 8.73266967401173 4.7584487673381055 14.988906044383299
108 36 0 14.368814493633318 22.305691109742718 33.27688454728135
109 36 1 34.60766445033077 14.300295110395998 18.99207827477942
110 36 0 10.573215240715514 37.93817858403185 3.797110449681544
111 37 0 33.56745318350125 37.748038921720834 38.312121191627845
112 37 1 13.05361558935964 18.764185737489242 29.344610701401663
113 37 0 13.604723872154416 18.55314667511291 10.976550294258216
114 38 0 21.86593746172962 3.6317116391227886 38.53742633819323
115 38 1 4.010323155007664 25.935503618580398 15.493463517113861
116 38 0 27.404315512945104 46.67116837667431 31.283035125712647
117 39 0 3.2323058405822276 22.25347775393398 24.823794002743334
118 39 1 26.64233480913292 33.97055883511875 14.04735702112139
119 39 0 7.6442056462273555 20.485479976627946 45.81575411025803
120 40 0 10.118447226394785 45.13499427951864 26.952301220378622
121 40 1 22.847153543798676 44.01727072252079 23.026956598987212
122 40 0 35.420837006102275 21.372423276603357 43.89215602830739
123 41 0 34.66982250308708 34.81956080653375 16.16443088788115
124 41 1 37.71804845236108 31.84286836598064 12.147942509960753
125 41 0 9.792981918047976 39.344894303075606 45.828185677754924
126 42 0 22.90607459868405 30.594407407186996 42.07045892244272
127 42 1 22.92693607471202 47.52067938786789 28.881813567155355
128 42 0 39.987380830894 45.56481381662324 40.08441561920902
129 43 0 7.703334026012431 30.86836447264835 19.5330994638067
130 43 1 3.298380388752998 21.164961028590383 13.088529031984098
131 43 0 40.11532876354376 2.8275705737426193 45.86851146395414
132 44 0 17.264184974663394 17.97007648253227 3.519771068189693
133 44 1 9.277454011860744 20.15381626490621 46.28498080715912
134 44 0 5.231509388772232 45.67678718887379 43.64431805658006
135 45 0 23.16864240818847 15.490238637491796 11.013360494277366
136 45 1 30.661594907358797 1.7126873312990556 0.8610513883901829
137 45 0 21.9642769728602 3.305907466684774 11.92765244062831
138 46 0 10.452818037421132 12.262259217364404 7.973701587135448
139 46 1 0.8187320223505197 5.961886775767454 30.796321255839853
140 46 0 45.846757388663534 46.911068543305106 21.07418581341319
141 47 0 10.597245112105481 30.236779953243644 25.38413060425987
142 47 1 49.18863020257926 3.4037916860513273 39.08534551051241
143 47 0 16.47967311514039 11.555387646438568 33.47918279976403
144 48 0 12.809616732387768 32.97683104667909 25.21241549440061
145 48 1 21.223065413749023 27.729272971840153 14.406379614456066
146 48 0 34.52441988830899 21.141156585120044 17.819359368933664
147 49 0 39.66512438858877 44.538100363103354 4.586484411134017
148 49 1 11.881150636381912 17.647600730227488 40.622318784246886
149 49 0 47.045891467367284 46.612308964602704 44.97667273381697
150 50 0 14.310974161972322 49.48450941095057 12.429724605917048
151 50 1 5.436140125658883 47.38898305240256 11.766010579183448
152 50 0 32.75265908018144 5.573020782030625 35.056363312674684
153 51 0 42.592207276638995 15.021762811877997 18.537672537254004
154 51 1 18.771804554551746 37.298419264012864 11.928244598225639
155 51 0 9.175325357963816 23.320483744787865 15.033077553565933
156 52 0 42.26110335506708 13.043887287805246 26.183459647159708
157 52 1 47.10989565300136 31.647707084309964 43.269358703342235
158 52 0 47.01654544834973 37.21653971346851 35.43648785472389
159 53 0 45.73161737758764 47.63223073562407 21.702620685444586
160 53 1 3.771521407934093 14.739794569899598 7.753977315868425
161 53 0 19.864811469851382 7.04058081812266 28.885769986872663
162 54 0 19.625521048175194 42.94196056740555 47.28326188031347
163 54 1 27.37671297449892 13.878833107312492 29.673349322535522
164 54 0 43.83336029748528 19.96125539904541 27.721034393395673
165 55 0 13.525536565506417 22.896455285021958 19.86098533218601
166 55 1 12.446707369805678 25.289002384867597 15.612715942270238
167 55 0 18.290817949945687 26.193039969613725 36.25485347710189
168 56 0 15.950744603424452 44.20621779699502 41.8529721435201
169 56 1 5.296796594786514 12.23366292678694 21.482499578247452
170 56 0 5.185940758833443 17.13694907713881 36.1374615573482
171 57 0 32.641081239952626 30.301056730604852 35.424404803417936
172 57 1 10.456584765022082 17.173025369428192 33.74615631641846
173 57 0 41.973753242335135 26.5891867446051 15.296798492085887
174 58 0 2.5257510518781867 34.98306603908595 3.1004425526732664
175 58 1 18.51829230845255 26.53713899286886 45.770457272503634
176 58 0 5.311903526664266 20.667154620495108 3.8707173917597286
177 59 0 16.744069728227817 29.631692568822395 14.827881429806606
178 59 1 10.601184971369044 5.9801754353885 28.87109734902418
179 59 0 33.33021521914038 31.95758793318374 46.34368267809855
180 60 0 1.8692734286898502 33.292588423549816 28.295995559658298
181 60 1 29.34835846125712 48.05313916690024 1.0408726995760815
182 60 0 34.507251947882025 41.11669741365057 24.057323827892354
183 61 0 17.013814971205893 38.74521033791323 6.612946725948515
184 61 1 22.020995646160088 25.998810276184408 34.543531751720806
185 61 0 7.249879365571099 15.139932883744304 25.512480743533914
186 62 0 29.736391441381443 44.621132399868216 31.67830459837639
187 62 1 6.829300919739843 49.00141150327543 43.4832248865049
188 62 0 24.064972225789987 46.28625030991431 28.0282637993809
189 63 0 46.152017573608575 39.140245495815655 46.0566213599137
190 63 1 45.89153359749318 2.118577944515023 8.908968177489895
191 63 0 21.0323713236342 44.891086532414576 14.633617551555066
192 64 0 10.240162474180924 42.1589184323708 22.957484451888963
193 64 1 45.170677550224 8.130903516949065 33.02252482905318
194 64 0 23.366231883050094 4.071032427468503 34.71956360528021
195 65 0 11.820615685181838 4.559482541909432 5.016805103539815
196 65 1 3.2429295768824535 45.182331525101965 36.8291429197495
197 65 0 42.42762657054459 34.32040502858964 27.06758896363221
198 66 0 15.712513799158176 48.06435307666112 19.93440079800245
199 66 1 23.448469239250485 19.01763531301701 48.80855755279452
200 66 0 9.592271909267726 16.550935907923286 34.87420611351971
201 67 0 3.7986267857711984 29.297969812367356 23.988047646528475
202 67 1 14.174953678067313 12.025619542759948 25.687740611181425
203 67 0 18.158254605591534 22.211551582862896 17.373874177073805
204 68 0 46.666704212212906 8.029982525903925 6.50505957914821
205 68 1 17.295318356942744 29.54092624801042 32.79909444674264
206 68 0 19.709201288628943 48.77322870373458 18.486162670793394
207 69 0 36.79840343776377 32.59838837505443 40.51082412400141
208 69 1 48.714478482629566 44.34239097938166 38.12297753554239
209 69 0 35.69805493406991 18.437870495154428 9.214688098488946
210 70 0 7.524594029122069 19.879541294495066 33.75119186430498
211 70 1 25.953473032432566 38.450324291028146 47.80039557970146
212 70 0 7.060344395054086 7.316950752922653 30.57354041773166
213 71 0 37.966966766338295 41.08796332961374 45.15622644795334
214 71 1 48.9731743454658 20.125183833531114 19.169939848683015
215 71 0 9.863481621076794 33.404807422406414 32.02250123206987
216 72 0 42.29069863619884 5.279980628419922 23.938202234941574
217 72 1 29.15512490552181 12.018663397346767 8.5650955146316
218 72 0 42.174372888788156 3.4557226826728966 22.659729804079635
219 73 0 6.70401494210719 24.03705716853144 46.44127491319468
220 73 1 21.10062768055588 42.6996700434768 6.0768398234966226
221 73 0 14.006047187885692 21.51081308660423 19.170421475896905
222 74 0 32.96282135942315 18.17239116680088 34.01687309321523
223 74 1 22.130726022928553 34.84326931030537 4.14222459245464
224 74 0 30.28484388390631 5.258944392862313 39.11440978731049
225 75 0 31.07935172230194 35.372652215021525 26.461918025816324
226 75 1 5.661524668863444 20.242280793700633 20.353148700770703
227 75 0 15.440718829251104 2.5932416342082365 35.89536505413259
228 76 0 7.042870242287714 31.35392520372734 33.389069035440706
229 76 1 31.685465294461885 47.71981667973091 5.355562429871403
230 76 0 42.66580145918116 4.218324032678727 25.467649050046273
231 77 0 19.591261383047332 24.735395100153422 18.7006047611092
232 77 1 9.687401913961205 1.1133582697347388 25.825231462977644
233 77 0 40.21524733934972 17.618451392413018 12.013846840700788
234 78 0 4.080629204406402 4.7682144934925965 10.638577151121407
235 78 1 4.991022093518012 13.328785173115504 3.3519177348527474
236 78 0 3.380834499490129 41.0823573687539 7.825903310418355
237 79 0 26.790958667663624 36.98570337497277 22.75328435220338
238 79 1 7.811208104856474 10.112331089969206 21.716850540631473
239 79 0 25.321115580964918 17.038194354476694 38.05831450864054
240 80 0 37.97922033991644 44.777660901043355 3.9668637415218364
241 80 1 44.72025085406714 19.83619595370313 43.739645091799986
242 80 0 35.13942866641648 47.625737219617584 38.309008576976304
243 81 0 18.22969214136246 24.379055911383503 19.15523500501191
244 81 1 18.301684041097076 13.090197496342467 24.782551643135488
245 81 0 33.186752836682636 13.821384906508644 26.137709569859847
246 82 0 8.391061908439372 7.5313617092387375 2.733634005843961
247 82 1 48.31319042369314 0.2361411275678202 9.034119836125125
248 82 0 31.69484534202317 3.8406370656342093 42.01903056863548
249 83 0 34.747921376044026 47.090750583559576 26.627297014194124
250 83 1 15.136525264866005 27.50118786614466 46.45364779554822
251 83 0 25.40921447719019 14.170711708419388 44.02075936294341
252 84 0 18.437757152641904 2.602779262158468 13.01008729861518
253 84 1 15.944718918256218 42.68483445645874 22.9636300469076
254 84 0 21.858355039368366 18.33668557626071 42.79220764303766
255 85 0 47.30814112476934 49.01916972140753 19.690247272611714
256 85 1 48.170035908651414 39.52311656728282 33.636659325286985
257 85 0 14.385595334333644 12.532139178133773 9.813867203766629
258 86 0 44.87240816953672 16.12862497983114 23.80734256292239
259 86 1 24.712350056970898 38.7558279181475 42.139529748460035
260 86 0 7.98765028176513 22.36408711073581 42.14477882982611
261 87 0 39.398409515217736 5.04402784372524 8.602666604629707
262 87 1 15.267826876047696 3.862666255501062 21.151731583219167
263 87 0 5.957534254174109 26.97181109659494 12.846601392783754
264 88 0 30.811642643936235 6.687363949436155 46.62459944701808
265 88 1 46.440841367858326 19.556131786337215 12.207135583226034
266 88 0 14.525675747667641 23.898750631532867 2.5983910847962224
267 89 0 32.48130177435218 21.299437179348544 20.564092336161092
268 89 1 40.353967982000334 35.430872839187785 47.57742246048088
269 89 0 18.928755424917824 44.3263193035005 39.03264034061128
270 90 0 19.389702143471364 29.58558000188488 14.207096391633142
271 90 1 43.49737646658578 5.768636285155013 10.734156830173227
272 90 0 11.195879732027288 19.293577073190814 35.684590187692805
273 91 0 26.053225835823483 23.153172108848995 0.6337200153153566
274 91 1 21.381942057377167 3.28247692573548 10.494986602515118
275 91 0 45.12231186229201 10.32348090625466 40.99517386074945
276 92 0 38.114983314749566 9.638694525362556 30.380959203371148
277 92 1 6.038087976848192 36.24368381843679 31.918289118045614
278 92 0 38.546413984508504 24.69945082155323 44.92461036790127
279 93 0 3.554824119712761 14.292975025969952 33.967700951777076
280 93 1 20.911460709770097 8.72506651561956 5.615380968539268
281 93 0 39.68298829593039 22.768935317368484 41.82252115587791
282 94 0 36.02351102366015 21.89123820725137 19.74343872498675
283 94 1 25.72861778033348 44.32973303135853 36.8305497454195
284 94 0 1.7508832524842786 35.27513761227624 45.44086069701288
285 95 0 33.84708628317188 9.386039991462644 25.509235302546415
286 95 1 7.265492612416613 17.9023132622024 46.66190010139663
287 95 0 43.84673995997705 14.3666772723007 18.750716824385773
288 96 0 29.016230731262617 47.895836054631715 8.390240147507567
289 96 1 13.026732349550592 43.56697533666528 24.539809583324278
290 96 0 43.04797678335917 11.314461345775797 26.510906976671848
291 97 0 16.625024006633467 15.9474087559169 23.69955384792049
292 97 1 21.689496446157367 17.928035349434136 45.54867181629467
293 97 0 35.70567445351581 35.2850940354439 16.337141469925626
294 98 0 28.235574192764346 38.93627863920897 39.611903113781956
295 98 1 17.230740311669024 38.562043553302146 36.752327732355916
296 98 0 7.658546152726547 43.02471964108008 22.910891661118523
297 99 0 24.70459576363481 22.56073077521981 29.2410302511352
298 99 1 31.05397599289372 24.91605904271598 43.16499374345609
299 99 0 39.384981291354734 28.961652000147883 5.585859752365496
300 100 0 38.30770254800754 18.976410187259777 12.671543143882328
301 100 1 3.11979594730871 43.60337567370628 45.65886652773585
302 100 0 5.830119229877621 18.32434574821316 10.965231199117582
303 101 0 8.372023805326133 42.59804432675925 5.247316488202779
304 101 1 48.787358491072766 5.02189590087497 42.927710490396755
305 101 0 29.539024206018553 17.601164622945987 18.646454991463322
306 102 0 37.17905884232048 16.219636004798183 33.56532670933158
307 102 1 25.915956408894942 24.279054500898077 44.982900930197026
308 102 0 27.626133678255158 40.359906804424845 36.78202428967575
309 103 0 4.493801502121504 36.487168360395756 11.191535850522806
310 103 1 44.84833362953675 2.3616642704774238 16.72218962012833
311 103 0 7.366321004929133 22.499336863798604 39.555417034722446
312 104 0 16.40784168821843 7.518815919595376 16.21443732721486
313 104 1 40.46258560851712 7.125564475002298 11.41786728414262
314 104 0 5.647269877775336 33.61066331910172 19.26487053289586
315 105 0 16.74942684202737 36.20739073733735 16.456911082630977
316 105 1 36.358405316660885 40.62274690681976 10.917972676136444
317 105 0 47.96521896226702 10.037453354216765 14.327424752196821
318 106 0 9.996474325285627 18.770325925023318 25.204665690902853
319 106 1 25.99019461094812 42.544448051781984 44.25364914655763
320 106 0 11.896525063943793 31.824189325949504 7.872866792615455
321 107 0 23.019702024099953 17.299444598840502 15.108707780044812
322 107 1 24.22927986122988 36.42923509038387 3.5653379090278436
323 107 0 42.81621389442456 36.72450380353998 8.517773751511916
324 108 0 44.75717000800168 25.400745562838395 47.888216478395634
325 108 1 10.019884541000101 26.7503702768729 14.75930259261261
326 108 0 14.898897018324524 29.3884163033584 44.237311837032934
327 109 0 40.600037078632376 35.52848164714168 28.864824443530363
328 109 1 46.07827905347681 24.610443037600795 43.61686241019229
329 109 0 41.94899682844169 11.4828400576342 38.850790203846486
330 110 0 2.060135029079418 17.357599296883645 11.090994858315447
331 110 1 25.220542217342043 36.790813735854094 4.888642509119067
332 110 0 25.72063377595844 46.357479360853674 11.067657451576506
