ITEM: TIMESTEP
29
ITEM: NUMBER OF ATOMS
333
ITEM: BOX BOUNDS pp pp pp
0 50.0
0 50.0
0 50.0
ITEM: ATOMS id mol type x y z
0 0 0 27.265984978284965 28.079997700980034 31.512870207929463
1 0 1 27.06118550801142 22.480746441525213 32.777554031054805
2 0 0 24.92072733447277 31.50476389678627 39.15318486878827
3 1 0 24.054294587970492 42.76398742087489 14.056091199399559
4 1 1 27.236547908399086 44.452424217301086 5.68199475019919
5 1 0 18.12486921869683 27.07300316019215 19.93654061281234
6 2 0 39.05690856603792 32.13398438999296 42.947320022846846
7 2 1 38.726781050485826 24.087899275523736 38.247735570814775
8 2 0 25.46675415085125 27.13597899896273 25.608240771580427
9 3 0 16.990259127448265 20.673073653674923 18.96434964784939
10 3 1 13.838116520178605 36.01533733431433 22.64898955195009
11 3 0 19.489234183517826 23.68482915068621 29.51454308318254
12 4 0 32.590977863429835 23.360113988729278 32.97229708986388
13 4 1 33.99720171461399 17.91220884956374 23.119678643810445
14 4 0 34.40200266341529 11.486038052286501 27.270253633633804
15 5 0 23.539690574121998 15.276434310400449 18.652421234189223
16 5 1 16.601355339829365 19.01178102849239 26.928263933681635
17 5 0 18.63939823414743 31.4455223980058 18.206741454289702
18 6 0 28.118742421062137 25.280637471837803 19.01619925541333
19 6 1 47.47417806317695 40.64836159869807 8.517930128519366
20 6 0 27.138554113399184 24.161535932348098 19.024657319266808
21 7 0 25.973943543204633 7.571711475501073 31.622773359851895
22 7 1 38.57967991966576 6.577762819169743 40.426886136756735
23 7 0 25.259466143427467 23.518347877452417 33.77299072395973
24 8 0 4.320403505397513 27.313092577388407 34.679134874034446
25 8 1 3.437725425346968 14.675481577036663 7.9449748562864615
26 8 0 8.176257087188686 10.733739332691167 10.914217068241859
27 9 0 23.581989127340766 8.444782912298132 29.269588509888578
28 9 1 15.939182781667752 4.302914606250057 16.23303375108647
29 9 0 17.047503017525756 19.235654818085223 34.01537019591178
30 10 0 27.081238446807745 22.520676370871435 8.451427591362975
31 10 1 34.66486512152647 14.932235498453771 10.043608534980283
32 10 0 17.2147997099628 27.53212508616466 11.945019025113268
33 11 0 21.02500629277 41.78264094603497 13.103934133600795
34 11 1 35.20963744707775 46.975128590258876 13.031955935219628
35 11 0 32.819514932705786 39.8587480148701 19.500888895703216
36 12 0 29.570785817055143 41.89792032060101 15.384522902502312
37 12 1 42.423264019689725 38.189927987685024 10.133372578719541
38 12 0 41.85026354278637 30.367218902786387 24.349731309069085
39 13 0 33.06638432343639 33.32757303363878 41.827080235756135
40 13 1 35.87717393568664 25.5893752303627 46.75760977144982
41 13 0 34.36615499191424 23.58167713900147 39.8653519486798
42 14 0 8.478075347332659 23.775998337372286 26.591589616464642
43 14 1 13.77577471930961 29.814215244164096 22.07578406654004
44 14 0 10.902854867483498 23.602204716352563 24.71733946044176
45 15 0 31.05038606542642 24.808358906209353 39.316229755323036
46 15 1 32.02717469206295 21.8173845319316 44.41250084386648
47 15 0 26.119688441817463 21.756354432647964 44.57826691666547
48 16 0 43.04313016142373 35.59460570563647 30.22870582878748
49 16 1 44.42061576913997 35.964758739591836 46.89708018798871
50 16 0 29.59522673177014 38.963051120509434 31.631483835279237
51 17 0 38.875868231908456 16.695909448626413 31.48806925364082
52 17 1 45.85680891207439 23.32598198307613 24.45614786532444
53 17 0 27.72438574482476 28.621683484926272 23.24748671986413
54 18 0 39.87543977349335 18.811076758827372 31.152122710061914
55 18 1 42.34986275148049 2.356916796490361 19.343714235357982
56 18 0 39.79417475044042 4.805751329363379 22.10029263973606
57 19 0 23.976058069441407 11.001464459640161 10.077796612215634
58 19 1 38.62487048826374 11.986794798060236 16.153034552716907
59 19 0 42.10533564282541 21.570882410860857 10.273443119175166
60 20 0 10.433977194372932 39.475253471904104 29.944717901527103
61 20 1 12.283203491593694 45.592816106808286 30.83610624611853
62 20 0 18.36513538118996 38.981307557434775 33.217489078679215
63 21 0 11.92857165341914 35.22005582324975 25.02191218460548
64 21 1 10.049993281618958 45.01769163960643 35.191108295220246
65 21 0 15.871608553228405 31.58535086349901 26.287176313308468
66 22 0 20.612183932903253 19.903932439299975 12.15999064901576
67 22 1 32.536259699122596 18.44022842416231 10.085148883285974
68 22 0 20.081507543713375 12.305981332203006 19.720076453274498
69 23 0 37.48153423394768 17.600162045308895 38.249081962439625
70 23 1 47.3160290010805 11.05791848330253 33.72625632192324
71 23 0 33.585599043284 6.850232933264683 35.34980845365863
72 24 0 30.15129680558044 26.257966031420473 37.040067438196225
73 24 1 39.68921216198092 31.3195933893444 41.93577751864964
74 24 0 29.335860340550678 34.889020447469115 28.80638673205997
75 25 0 47.24439055498308 35.130733547666935 11.429952237794396
76 25 1 46.08016027069545 36.11631433910512 12.24893788381644
77 25 0 31.675716823880947 31.976471306458173 7.798937590019904
78 26 0 17.759833028002564 16.997572270568618 24.5003000095442
79 26 1 23.46190714683745 13.756691298332266 28.73560829254374
80 26 0 31.812324002099093 10.414790172518543 27.60261369513601
81 27 0 18.91695625389374 20.729165021785267 13.161946375995589
82 27 1 27.27926473628174 10.407403757253645 9.171944477396352
83 27 0 9.66967531985003 11.413897417586805 43.38656249886881
84 28 0 19.356693043891102 31.643747400102637 35.83000246564365
85 28 1 6.902907863971212 27.49606692786715 29.1778109691385
86 28 0 23.29838185856017 22.2136199138976 22.132839294397762
87 29 0 21.359790049424323 22.48577173702297 27.872460383341796
88 29 1 32.2913471891869 36.60359649163863 15.433127409193848
89 29 0 31.302208109181173 23.257435342094457 18.830634750694692
90 30 0 48.40475828095134 25.706898699348457 34.22532625280548
91 30 1 48.07139976047351 13.699121500980894 45.842273259940136
92 30 0 47.65329636759274 24.253794215851922 40.184486603737234
93 31 0 22.19674310087489 5.231118858003068 12.113126506161166
94 31 1 29.923257592031472 2.8756007844591895 17.624298210029224
95 31 0 26.232537366806536 24.0613707940783 22.871117787891148
96 32 0 15.014164914084805 36.70561266966294 13.365083725644949
97 32 1 8.113934327314912 39.75176110856185 9.637699634086653
98 32 0 15.1182650345254 28.15051474609163 7.632171501102371
99 33 0 43.88831278673625 42.639843503765334 30.389913973455258
100 33 1 44.001320660697544 38.0152478662604 18.59743904222796
101 33 0 31.101188695893107 23.194962199652878 34.76240705828646
102 34 0 3.1952433589865183 22.802773693491073 20.02032545666057
103 34 1 0.9026583298955257 36.08125800773364 9.279810727774581
104 34 0 2.1052567005033462 23.513823680933932 18.942520824782832
105 35 0 28.09188420261422 26.152177005050227 26.810564413142245
106 35 1 36.7596987496839 23.627995618098726 42.878786093540704
107 35 0 25.88042913048051 18.68182474471762 21.559970292319772
108 36 0 27.263081820571593 31.84040714179805 37.087770127639224
109 36 1 38.11985831706698 47.70880349324781 47.6263200287543
110 36 0 25.713141032451627 38.69375216679237 24.30813086176696
111 37 0 22.457617747196647 27.423763384869716 33.24384169773914
112 37 1 13.892453326069177 19.39733441110158 29.11521026828907
113 37 0 13.585046592707219 18.885919144928597 20.895614335797344
114 38 0 13.237892697687125 16.630935418159403 26.444065428505812
115 38 1 10.657264076870895 29.173408032287217 18.779100086228294
116 38 0 15.15993541795625 36.340805678920994 23.90033469439537
117 39 0 15.706303129482064 28.4496333686835 19.353383590571678
118 39 1 25.230351424349603 33.128327355920206 15.46993509078686
119 39 0 17.782426118211717 27.7394229544969 28.52743704157231
120 40 0 16.91109650510355 44.29688012071961 25.135270129881242
121 40 1 22.860737382751804 43.296114176796266 23.849747848474664
122 40 0 28.41095649931556 33.74910262064271 32.54448205007066
123 41 0 35.78903033328657 33.57734396182518 14.666169534194404
124 41 1 36.69016947097751 32.17728794274729 13.396574341565302
125 41 0 25.11973495161791 35.26695679793547 27.342209295472543
126 42 0 23.05948227568559 39.95813859407352 35.14827717165977
127 42 1 23.387803238243865 47.44943089748507 29.749123955286933
128 42 0 30.796973662154596 46.711915593991264 34.269164555397914
129 43 0 17.057207793015785 22.752913064074665 31.5404998183238
130 43 1 4.8263699566506055 20.82936575839474 14.587950815494418
131 43 0 19.85925544102846 13.056722880789176 27.868221401558387
132 44 0 12.824827784599476 19.47405115599338 27.000581622289147
133 44 1 9.411806289192352 20.92457412202969 44.759733923529
134 44 0 7.5164355929880955 31.83217241128058 44.56802869117206
135 45 0 27.090668260962577 8.450529378511105 5.66709961059089
136 45 1 30.27277640200263 3.106151155628604 1.3298001806900748
137 45 0 28.1913635557816 16.530854425694912 2.140119655704467
138 46 0 5.782625227977693 9.344514259580231 20.186814934378766
139 46 1 2.660741968900219 7.555796606955823 29.713833849668124
140 46 0 21.04474534592804 24.32629044782849 26.180894202800353
141 47 0 16.54977697138374 29.892374917760282 40.76243666990181
142 47 1 46.467388759878425 4.902552780137954 38.59782991382351
143 47 0 33.820224229019765 7.473597614298786 36.394343241328095
144 48 0 8.39785804320515 24.314255463740498 13.390719211997652
145 48 1 3.2684562501171603 17.24318993227193 3.0600825302079526
146 48 0 17.79548154824488 19.02425733099839 10.123992026093138
147 49 0 25.39013520449909 30.51244560718089 26.089692814136637
148 49 1 14.109501764869163 19.56880291233248 39.76300821044797
149 49 0 28.07629581790298 31.01771612110718 42.21408237541563
150 50 0 10.268001726374825 48.08831305057153 12.367008049420374
151 50 1 7.006237656184225 46.41102223619301 12.675653070339225
152 50 0 25.297704348127898 36.19238790680061 24.185958363359067
153 51 0 29.393960669245264 26.96565279237682 14.974656882228683
154 51 1 19.074783687445038 35.97700718564016 12.27092042975604
155 51 0 14.449344694835197 30.43065448491481 13.482998311473974
156 52 0 44.88403937397172 23.17188457957713 35.34453111986467
157 52 1 46.946231149349074 31.203015487888788 42.460558922887586
158 52 0 47.01239302188491 34.20363480626474 39.216187980007824
159 53 0 22.72736249899605 29.39192025377095 14.245101913954356
160 53 1 5.708325501723916 15.589737924495365 8.913863693880243
161 53 0 11.633255521316771 11.603460990341697 17.591383388406122
162 54 0 18.316282842679577 34.972439663696136 37.649692038883806
163 54 1 15.036298358131631 31.975878150883887 29.97759085021628
164 54 0 28.948778877708587 24.804524583396454 28.856287256385105
165 55 0 13.090712024188685 23.949819361685204 18.15257066372232
166 55 1 12.620924272261398 25.304503465369418 16.4180696214594
167 55 0 15.156270334876023 25.693173997857606 25.213350872938676
168 56 0 10.107351415012046 26.73030608804565 30.85107246144043
169 56 1 5.650853147077295 13.46436193458353 22.636747729296864
170 56 0 5.3639697252312 14.921887159530986 28.671426302226525
171 57 0 21.019930247200453 23.315734914294424 34.30116097970417
172 57 1 12.245198681986539 17.922145604871908 33.18380824763024
173 57 0 24.975673472282473 21.587425421510016 25.420031992402595
174 58 0 11.165351183570039 30.265341120517007 26.0722290440403
175 58 1 17.535434651882177 26.624526899338957 42.92875398682635
176 58 0 12.377347435262061 23.995365028903734 26.385247162667138
177 59 0 13.678655778539664 17.10349894704821 22.654736166182637
178 59 1 11.566758252272349 7.635508873200119 28.9908069284664
179 59 0 20.94535432043814 18.00011162844918 36.600306771929745
180 60 0 17.01700407217112 41.31448481354575 13.604427075956023
181 60 1 28.595779403959977 47.328720817949204 2.7152379253194523
182 60 0 31.400867257695058 44.686172979073106 11.95801632517942
183 61 0 21.287138372624085 32.84825902942421 21.53816202938088
184 61 1 21.411919784354556 26.121350849179237 33.28517064985691
185 61 0 13.503528371412884 21.0400539456186 29.186792065166475
186 62 0 17.56399116699352 46.86265008083621 37.872324964627374
187 62 1 8.21128388195399 48.47063943202608 42.54407483145752
188 62 0 15.788799185033643 43.16637719985347 35.72113777374732
189 63 0 45.706019784868666 19.23546467867078 25.631809059621272
190 63 1 45.06301436143122 4.8077437972030985 10.354470668956752
191 63 0 34.735935154291845 21.76827237891711 11.930267901405909
192 64 0 39.78984597626802 21.210455745361898 13.443631493373411
193 64 1 43.616631504440136 9.077012566332073 32.255273340528646
194 64 0 34.73627148008629 6.638958993391284 33.59914404244528
195 65 0 7.563682980371317 26.84259916611676 22.449489683375806
196 65 1 4.847225562070037 43.4476904284313 35.42852556468665
197 65 0 21.017039681461842 39.792759363617485 32.04234606491109
198 66 0 19.798018839056475 32.08415380188438 35.62761850601812
199 66 1 22.73625045905047 19.91308350629122 47.38355091756825
200 66 0 16.901870223141074 18.206302664773254 41.98086563981206
201 67 0 9.394464625153947 20.16972856450009 24.80780786308499
202 67 1 13.959435948298788 12.925773152339143 25.370722291281698
203 67 0 15.965577393625969 17.086286490698157 21.696009417731823
204 68 0 30.536176969239442 20.092930098047688 20.801373675244434
205 68 1 18.36367399108823 29.452405439817653 31.442826186685522
206 68 0 18.752632080981016 38.138254121766586 25.90211350998616
207 69 0 42.952245741749906 38.514554296033864 38.91788341151758
208 69 1 47.89096334356055 43.09269410932436 37.22887891185257
209 69 0 42.69174097342174 32.52449185912294 25.108142029452424
210 70 0 17.311972104193416 29.59955621925726 41.17927585597853
211 70 1 24.70778443629653 36.7893138479894 46.756051546325736
212 70 0 17.204297319912513 24.17236338878725 39.85541606480975
213 71 0 43.650264899245606 29.81317909425597 30.94228642569748
214 71 1 47.54376814083369 21.316339252400574 20.16409356885363
215 71 0 31.35768632566482 26.377744940246618 25.094235427775885
216 72 0 35.39610933111849 8.79622745475336 15.857472459182688
217 72 1 30.010716565964998 11.515419573046055 9.53053492550046
218 72 0 35.34872821054304 7.964282197487152 15.282825273318545
219 73 0 14.544804677478929 34.05864134202201 24.377270274069605
220 73 1 20.381628600113757 41.37154645250955 7.8683198747519105
221 73 0 17.67028949331372 32.73967860126177 12.571903842087636
222 74 0 27.140890638179297 26.930063595351108 18.107802199514982
223 74 1 22.767640391348223 33.29165469113026 6.316207541547838
224 74 0 25.927832413959344 21.33928254263152 20.226624523410145
225 75 0 17.359607581786605 26.93067288111998 23.31921124198707
226 75 1 6.831049208934217 20.16216120347508 21.070563079096505
227 75 0 10.448104612405073 12.317180388542093 27.559544344930732
228 76 0 20.697169619553527 39.80898031229702 18.24952525809846
229 76 1 31.22895187556867 45.70544865409155 6.9733502077013085
230 76 0 36.31682661513062 27.993326570206793 14.723177940119777
231 77 0 14.590151192495862 12.145930454914094 22.393975275787255
232 77 1 11.037250077887437 2.447529906351847 25.127056874056873
233 77 0 23.618703229826536 8.861049865792161 19.491230585838327
234 78 0 4.931219540340219 8.842447924573746 7.2523431251416355
235 78 1 6.081011765512404 12.337741857430707 4.475998919382055
236 78 0 4.69692024255324 25.236506445114365 5.776143938349687
237 79 0 16.64200941837762 22.406363219706677 22.37945129127602
238 79 1 9.022603375215517 11.237646089944622 22.290935212038494
239 79 0 16.08800675889345 13.612184638138638 29.24667482447295
240 80 0 41.57599463947806 31.371625954647694 25.80855440124025
241 80 1 44.17491137248006 21.598957478449634 42.220338100573976
242 80 0 40.26661200768542 32.81805741172919 40.7876216650746
243 81 0 18.428025784315334 18.521136816980217 22.10446724426425
244 81 1 18.790848280199853 13.461391805548574 24.73800059720863
245 81 0 25.717045781285137 12.99048031411828 29.87226680556871
246 82 0 30.10656261287647 3.569983481018259 6.588096314271436
247 82 1 46.41717886070854 0.6016270505428335 9.926639438858444
248 82 0 40.3147580007506 1.9546544056327104 23.88415827218225
249 83 0 24.081261307263663 36.156694934766655 37.216603203631706
250 83 1 15.764892499782286 27.324190011594336 44.72219922356861
251 83 0 9.049276799556347 10.126709890846048 18.7413409175445
252 84 0 17.13945728945597 24.315646771777082 18.711142210632698
253 84 1 16.2242600259422 40.529390452785606 23.290508310408537
254 84 0 18.65938072185514 31.11596769293889 31.85829282649537
255 85 0 47.37555246744095 43.67493102674724 26.80757670316681
256 85 1 47.00248742820985 38.92028130147105 32.381246044676494
257 85 0 32.99893159486762 27.521657533260516 22.78303389190401
258 86 0 33.649390868967934 28.31156394546317 33.833999694166565
259 86 1 24.835483393183964 37.45855496647207 41.52642953308376
260 86 0 17.240156945973894 30.9364385415813 41.92741396806556
261 87 0 26.200284263211458 4.6731197591105795 15.312586169982888
262 87 1 15.76002249262423 4.666955594154101 20.460115118595862
263 87 0 11.282145458742281 14.465814393713329 17.20061114560121
264 88 0 39.003934146408 13.799633962130596 27.62696989529122
265 88 1 44.84875307928202 19.26906332277402 13.042220662074918
266 88 0 31.766882378226402 21.373421195308538 8.257259681354139
267 89 0 43.603498974382795 24.843424403958895 34.86324209035806
268 89 1 39.66727129950974 35.07896331969895 46.37605633324557
269 89 0 30.475439509995546 39.316490871941625 43.33316485131688
270 90 0 24.687986558253435 19.410364925224748 9.231468751797902
271 90 1 41.12967840594426 7.190451099175128 11.50220466068493
272 90 0 28.499880876548858 12.202158462678657 21.96670628848642
273 91 0 20.66243826236809 13.235412109707966 5.000453863734506
274 91 1 16.38714887369537 5.562804625681388 8.622896960983816
275 91 0 40.07930453876393 9.62545514760161 15.027522159185926
276 92 0 35.80591278925244 9.679013724104545 23.73365554373053
277 92 1 8.532496308271897 34.64696587870883 32.12526736071748
278 92 0 21.192417760048997 30.652827530406242 37.765877107327285
279 93 0 13.25326784122243 11.421568189823818 18.924247717112987
280 93 1 20.9630189127292 9.382717108909485 7.777910708513443
281 93 0 29.159704462673112 15.11826778671923 22.265474355624363
282 94 0 30.137788842026747 33.998625917008226 29.145643087996916
283 94 1 25.276097247078585 43.282553694957656 36.5473325878872
284 94 0 14.87696620586264 39.9226681414392 40.57006257339148
285 95 0 19.767558851653924 13.994490879057219 36.72754114396018
286 95 1 9.38374694237001 17.499604278648874 45.0167260609097
287 95 0 24.03809911466642 16.21034881166537 33.854195452848835
288 96 0 20.758805825260385 45.18596897327199 17.10958440220087
289 96 1 14.563939993553822 42.623683071682905 24.07408094648602
290 96 0 26.73377692586144 29.10520812775162 25.246679531274392
291 97 0 23.36995495901313 11.275184306792427 20.115906045897972
292 97 1 31.868554333018906 1.5297991808273685 4.480504025171862
293 97 0 31.73865140299083 19.720716544229482 16.93972212608764
294 98 0 22.45289976332271 38.79101356225965 37.98595213500047
295 98 1 17.266662974986072 38.717246300610384 36.39255311326349
296 98 0 12.866532671648494 40.656085329552305 30.29928672554208
297 99 0 28.13891147399371 23.830154830853147 36.126417664879256
298 99 1 31.12989895887382 24.975811451122453 41.456895846101254
299 99 0 34.74592983966912 26.717143287996542 26.023299589303896
300 100 0 18.91562607912277 32.26476082197543 30.460897201565277
301 100 1 4.398219804211047 41.92369750695176 43.38101869562694
302 100 0 4.767361685222819 31.91081583806702 29.621500375480647
303 101 0 27.236498660516986 23.469334571444215 5.77865414746366
304 101 1 40.92510247021931 9.510649641896112 2.9589954347547915
305 101 0 45.91785752912172 15.57770332566202 22.06934582063913
306 102 0 31.204430462665684 20.68847960992201 39.54940446434581
307 102 1 26.33837151857616 24.540622029726006 44.343722676952765
308 102 0 26.841584075479044 31.70711057818605 41.01998047950337
309 103 0 26.305668532664907 17.89879628038533 14.516919833991993
310 103 1 42.223775480740564 4.175062335645382 17.26330737561521
311 103 0 27.4286028182194 11.119752077743414 24.250949101217973
312 104 0 28.971647832676968 7.615423274582713 13.723431319618012
313 104 1 38.51239421726667 8.02076656941221 11.85215166180058
314 104 0 24.77801244198609 18.87574573006527 15.288870407947018
315 105 0 27.402112924153776 38.22114638652272 13.524077980176548
316 105 1 36.10069292921518 39.45689254469155 11.21099653667064
317 105 0 41.42548816686366 26.683634825840286 12.515643045213354
318 106 0 18.56130507310549 31.623425731021314 35.17175221764212
319 106 1 24.983804700222223 41.391270053584215 42.397258604343946
320 106 0 19.43665121927485 37.42080747781064 27.601931237238514
321 107 0 24.60039519852667 27.893230706534602 10.007631717939518
322 107 1 26.11302699999162 36.36677654732892 6.030850125966584
323 107 0 33.63949428757078 36.65211867343242 7.053454195296007
324 108 0 25.688135641159985 26.167537748202875 29.99433779491843
325 108 1 11.389684221093814 26.739470960857236 16.84999250053367
326 108 0 12.710653699275923 27.867373778825556 28.664472621391617
327 109 0 43.32407787887688 29.641739871175766 36.534490459453316
328 109 1 45.27738031291261 24.79885795621126 42.51956748923089
329 109 0 36.38243529288328 22.912013119254343 34.016596355893284
330 110 0 13.941046742934303 27.733787767293794 6.7223591197350006
331 110 1 23.144504612397903 35.890852595076225 3.368403165384981
332 110 0 24.500740000098297 40.84563498207208 6.889846688321582
