ITEM: TIMESTEP
31
ITEM: NUMBER OF ATOMS
66
ITEM: BOX BOUNDS pp pp pp
0 50.0
0 50.0
0 50.0
ITEM: ATOMS id mol type x y z
0 0 0 27.247320940607196 27.531657760287988 31.63617302916232
1 0 1 27.05151327365295 22.575610130109144 32.808785966521604
2 0 0 25.154154383860924 30.53003497387232 38.46106947211529
3 1 0 24.38677790362044 42.935458841505124 13.17621372233263
4 1 1 27.151214086695816 44.318249380934276 5.8380249680730625
5 1 0 19.158817729136324 29.046471976121566 18.320327237884708
6 2 0 39.01579087143439 31.283640849306583 42.4463452378898
7 2 1 38.63672413023658 24.16261096792429 38.190214874815986
8 2 0 26.95439929822783 26.79708020165049 27.027471772354925
9 3 0 28.889178058198723 23.27913768139266 30.686045157706058
10 3 1 15.244494798462055 36.12087309806506 23.625078284839486
11 3 0 19.654466006536154 23.772381112332326 26.074873892238898
12 4 0 32.743339789861764 22.768313305254562 31.906970288390724
13 4 1 33.99021979275599 17.908059388938494 23.212760687449947
14 4 0 34.35568707162211 12.166589211580863 26.840302569136544
15 5 0 22.789184503110732 15.685264080194088 19.54580560561918
16 5 1 16.66246974662005 19.07218518381819 26.811820163244924
17 5 0 18.41604368005165 30.065631779699142 19.170448501900104
18 6 0 11.720175261107013 17.044663701780237 20.576139888400114
19 6 1 12.407595547433198 22.09211221228097 13.740039188800562
20 6 0 10.783187730586864 16.114491333554597 20.595755983287525
21 7 0 27.365763057848184 7.467573526870086 32.59711627319409
22 7 1 38.39870436249633 6.7041929411918195 40.31910263360223
23 7 0 26.765177645783986 21.601225658215412 34.520622001383565
24 8 0 19.934905379925006 20.11939624253594 17.90056169378645
25 8 1 4.199178138869833 14.452847978225794 7.539653579019926
26 8 0 7.874485372251057 11.058856425196318 10.485380981637535
27 9 0 24.858825707576614 9.374150858131882 29.92961392914557
28 9 1 27.171628832536257 13.488966755356573 27.226503884033313
29 9 0 19.08649476411656 19.11565260087326 34.13217046541584
30 10 0 27.949275417026772 21.641242188516195 8.658415607743704
31 10 1 34.83520073179712 14.667988837813544 10.272453981993856
32 10 0 33.00269668642212 9.572290131915876 21.571650176957046
33 11 0 22.595085785632502 42.355293277849704 13.098175671521997
34 11 1 35.09585010529787 46.89201138130854 13.075429093056197
35 11 0 33.06990637817871 40.61682701638234 18.81018856457681
36 12 0 22.157689338289632 47.06967426138266 30.520358721762513
37 12 1 25.825601826850725 48.63598046133645 38.951084150408555
38 12 0 20.392346760532227 32.84869228641831 25.503553721551587
39 13 0 33.36504311308113 32.50349781012425 42.34969186169885
40 13 1 35.84885556490369 25.627865380564092 46.68069242619494
41 13 0 34.52056812793553 23.790179267227163 40.57205740684755
42 14 0 9.037385587342133 24.414388588163426 26.113810641227513
43 14 1 13.72091860381967 29.735806695414237 22.120956377476613
44 14 0 11.196422582343802 24.238283724530277 24.446400614169434
45 15 0 31.146011523266793 24.511430552088306 39.822247723771056
46 15 1 31.984578590862952 21.835583992827395 44.38191337998681
47 15 0 26.704477944331096 21.763125188082537 44.560696409983606
48 16 0 43.81938084569264 41.446167634764834 33.148031208215905
49 16 1 44.33982837602204 36.349751949393905 46.74455882250469
50 16 0 31.27911261680793 38.74319451571166 33.37372050578024
51 17 0 27.81542986547302 27.17872784691617 41.209542732578754
52 17 1 23.71203974994126 40.806163029480636 43.59476976051113
53 17 0 17.72833903308935 37.69989912511409 33.870406290782284
54 18 0 23.932046833948764 21.098136735846047 13.97767131934532
55 18 1 41.59171528972875 2.669450440473313 18.751893627886083
56 18 0 39.87858964379611 4.622081519134177 21.70538917288534
57 19 0 25.60527563433629 11.11452701321429 10.750863603523333
58 19 1 38.54702261206311 12.044792663200429 16.071134914348683
59 19 0 41.721959199179 20.529379067693664 10.909937773249702
60 20 0 10.621464600710596 40.08894732194631 30.03498884231838
61 20 1 12.311839353888738 45.51074420254274 30.84627523770217
62 20 0 17.719814643759044 39.68066990975472 32.96480745544227
63 21 0 11.988993467587804 36.12009203093651 26.408265607275272
64 21 1 10.117815453187651 44.84751912382467 35.07415993701749
65 21 0 15.22685015186607 33.078276034949255 27.28186861890283
