ITEM: TIMESTEP
34
ITEM: NUMBER OF ATOMS
66
ITEM: BOX BOUNDS pp pp pp
0 50.0
0 50.0
0 50.0
ITEM: ATOMS id mol type x y z
0 0 0 27.230470715240237 27.11080773541427 31.73650663021797
1 0 1 27.041302020242643 22.649069762843133 32.836078157853045
2 0 0 25.334367691251693 29.775509308469232 37.92410764094972
3 1 0 24.6400053337553 43.059426642460416 12.501939923601087
4 1 1 27.085278269398756 44.214688023914995 5.95837579648299
5 1 0 19.960567013026534 30.579486414340753 17.068985694585546
6 2 0 38.977276772280824 30.622020235964293 42.04735496866688
7 2 1 38.56684520518048 24.22013718243891 38.14601204208063
8 2 0 28.110979478372798 26.53828180100351 28.133703611630967
9 3 0 27.524621216324988 24.561091399925342 29.979931923245747
10 3 1 15.35642620020488 35.96570551610057 23.684020389514444
11 3 0 19.22813269016302 24.973127596758058 25.83789780103844
12 4 0 32.86200177932498 22.304713946332285 31.081093071781577
13 4 1 33.98488472000946 17.904558678239514 23.284721063156557
14 4 0 34.322387983665045 12.68620130158962 26.514813368352236
15 5 0 22.206794486910997 16.010472800456085 20.234980502707387
16 5 1 16.709468580268176 19.11902904589386 26.722223912252016
17 5 0 18.246451860526463 28.990920916347974 19.91481418016973
18 6 0 11.784387691926085 17.51417168167929 19.94066574849287
19 6 1 12.394058202160307 22.027675540193908 13.820022411488596
20 6 0 10.935572715810284 16.675969913647283 19.951498046938134
21 7 0 28.439632446325497 7.39730946024342 33.349392110396714
22 7 1 38.259048493546636 6.801715507797623 40.235970033108146
23 7 0 27.9258104347796 20.11114329332833 35.098436625655616
24 8 0 18.36191552659039 19.551759859631066 16.86498741563101
25 8 1 4.317386740911403 14.469681001544021 7.620354174257992
26 8 0 7.556137486054682 11.35716425284069 10.22974560472156
27 9 0 25.05726380126921 9.731413521115197 29.69715209000425
28 9 1 27.110366341981067 13.500725217712398 27.282754339244008
29 9 0 19.868255220696394 18.570252839913927 33.46462562264063
30 10 0 28.60293305763221 20.977336662910734 8.814934630544107
31 10 1 34.78334670116056 14.678434237904758 10.33127487788545
32 10 0 33.17870008500058 10.069071548636712 20.473991309523033
33 11 0 23.81403131659726 42.79621493219982 13.097460923881307
34 11 1 35.00801729914642 46.8278329409759 13.109005992114383
35 11 0 33.25628286687307 41.202759487363366 18.27367407860435
36 12 0 22.501835991223984 47.21316076739644 31.31113499748388
37 12 1 25.770048537140408 48.52793435211651 38.817388725502894
38 12 0 20.937053463433067 34.43394480856761 26.85190363636301
39 13 0 33.5963789701328 31.861937175141833 42.75225697703525
40 13 1 35.82698981503719 25.657584625285686 46.62137396102902
41 13 0 34.63909902539858 23.956248120828665 41.11859874993371
42 14 0 9.470609074144626 24.906888420023694 25.744456465900896
43 14 1 13.679745950697868 29.674387723077928 22.157021496985315
44 14 0 11.421957833543974 24.728477502827282 24.238710787131854
45 15 0 31.217605507571474 24.28058384915421 40.21562024145477
46 15 1 31.951723618367126 21.84959788249539 44.35832829184732
47 15 0 27.158545889062847 21.769733117091047 44.544678443296974
48 16 0 43.86672312406585 40.946510180546966 34.47904040193235
49 16 1 44.25542388801716 36.39581512334566 46.57822830761282
50 16 0 32.58224234100014 38.50584140876595 34.70399961387064
51 17 0 27.410967430025483 28.51545009753371 41.44091192633831
52 17 1 23.701115014892927 40.70410092227786 43.52163247233784
53 17 0 18.30759690194525 37.99616919407516 34.80923468605477
54 18 0 25.72004936544315 19.23231151534 14.461852018710484
55 18 1 41.47170115892487 2.795502159550412 18.73626002149173
56 18 0 40.010813556482454 4.4710782549267005 21.47134643211888
57 19 0 26.873950122117858 11.208059412544529 11.2705759963009
58 19 1 38.4869048111452 12.089593601463756 16.00794833390358
59 19 0 41.41517315901034 19.719029674475035 11.401214951095005
60 20 0 10.77014629103636 40.56220821020975 30.106272830696405
61 20 1 12.333952472159003 45.44739491331964 30.85411972127259
62 20 0 17.21735727097168 40.221008944939385 32.76794588041581
63 21 0 11.808741630055273 36.96343279706945 27.24651031079219
64 21 1 10.160461742584854 44.722579524853465 34.97399266485067
65 21 0 14.724725278153649 34.23395755184882 28.046369135644856
