ITEM: TIMESTEP
36
ITEM: NUMBER OF ATOMS
66
ITEM: BOX BOUNDS pp pp pp
0 50.0
0 50.0
0 50.0
ITEM: ATOMS id mol type x y z
0 0 0 27.219623803124698 26.853986890599337 31.799656497381246
1 0 1 27.0350359729052 22.694097851571918 32.8528311457191
2 0 0 25.44546976414072 29.311881084596422 37.59291189147345
3 1 0 24.793269875988305 43.13094128653172 12.09109099363965
4 1 1 27.04487005067291 44.15119454758847 6.032111041447421
5 1 0 20.453817940620183 31.52386240182587 16.30009479913988
6 2 0 38.94984964555302 30.214883500441378 41.797815781817484
7 2 1 38.52399497878699 24.25541239978097 38.11890641952187
8 2 0 28.824012445845103 26.38101550026673 28.816930019441166
9 3 0 26.685187797096305 25.346964019197124 29.545617860372527
10 3 1 15.425019960292511 35.87063232195678 23.720140924113956
11 3 0 18.970068626126142 25.7084359414594 25.694280179296598
12 4 0 32.935246722022825 22.01729244325225 30.573118494176363
13 4 1 33.98161230600371 17.90241845880359 23.328849957081953
14 4 0 34.30150276499877 13.00786721213606 26.3167253762981
15 5 0 21.84844741342097 16.21436921460866 20.657268832590955
16 5 1 16.73827616898658 19.147750998712258 26.66730220822258
17 5 0 18.14387783934531 28.327472726520462 20.371272897888854
18 6 0 11.82352681351305 17.801585381899727 19.551395474829388
19 6 1 12.385762365543462 21.988192654014217 13.869029799746937
20 6 0 11.029166840364754 17.020282309810593 19.556649724638024
21 7 0 29.09731238046913 7.358993996281792 33.810900010078925
22 7 1 38.17347067618055 6.861488481826125 40.185030587684835
23 7 0 28.637376553437306 19.193088641509785 35.451961923345166
24 8 0 17.393531228768957 19.2008921188316 16.227611190804247
25 8 1 4.3898555853179095 14.480047280467858 7.669823199422688
26 8 0 7.365020270913754 11.542171357280589 10.075617369738287
27 9 0 25.177243768478395 9.9530555264415 29.555884510689534
28 9 1 27.072794516537147 13.50795512254177 27.317249963606663
29 9 0 20.349423597863392 18.232931179256802 33.053963630119554
30 10 0 29.00535740019084 20.56640232153006 8.915008966938185
31 10 1 34.75155037400372 14.684839558194813 10.36734263369296
32 10 0 33.28501438737105 10.377522444751191 19.796828891107133
33 11 0 24.564626580716713 43.0659977376184 13.098780554878601
34 11 1 34.954171474660235 46.78850004564765 13.129578200871894
35 11 0 33.367236873436845 41.56230802070781 17.943174954315698
36 12 0 22.71191577957423 47.29643573080053 31.79354666498755
37 12 1 25.736011292212673 48.46169912348773 38.735471590873125
38 12 0 21.271570023621763 35.41043440898123 27.680165699436635
39 13 0 33.738567656629854 31.46605852558617 42.99862509296052
40 13 1 35.81358262401516 25.6758135841671 46.585006421107934
41 13 0 34.71143582279948 24.060474619836302 41.45411857654653
42 14 0 9.736712961452769 25.208796101891647 25.517623689489312
43 14 1 13.65451228684025 29.63675603474267 22.179124157480114
44 14 0 11.559589699421952 25.028670075955514 24.11189954755463
45 15 0 31.26044851557462 24.138301663704286 40.45808834933946
46 15 1 31.931568595474616 21.858194830001203 44.343859665071804
47 15 0 27.438171019052643 21.77445271007465 44.53370389901442
48 16 0 43.89151695784666 40.63947503902521 35.29459154951893
49 16 1 44.20369451775734 36.424039617675334 46.47630542137524
50 16 0 33.38511856040491 38.36128479138887 35.519214685737886
51 17 0 27.159745275820146 29.338285484394618 41.58034793828158
52 17 1 23.69442189670273 40.64153842680726 43.47680519595075
53 17 0 18.665908737213435 38.17433288604702 35.38703571310537
54 18 0 26.821622738006205 18.082837378287852 14.761087174708749
55 18 1 41.3980814372605 2.8728215636210646 18.726588661015064
56 18 0 40.087155967289235 4.383441237905819 21.326853230841152
57 19 0 27.65698130528989 11.268438207058427 11.589269014678258
58 19 1 38.45004451519907 12.117059700983031 15.969208741607734
59 19 0 41.221909410349085 19.219191853338412 11.702358551950825
60 20 0 10.863141442927141 40.852124034790016 30.150732753238383
61 20 1 12.347521318965978 45.408557014194926 30.858933308149012
62 20 0 16.90728599206274 40.552508360749144 32.646420368767075
63 21 0 11.69934696648674 37.47909485101718 27.76029137402994
64 21 1 10.1865946417519 44.64602369471234 34.912619487427634
65 21 0 14.415967363285704 34.94318008723753 28.514608588658042
