ITEM: TIMESTEP
39
ITEM: NUMBER OF ATOMS
333
ITEM: BOX BOUNDS pp pp pp
0 50.0
0 50.0
0 50.0
ITEM: ATOMS id mol type x y z
0 0 0 27.214599667253708 26.788370215527408 31.818689254393735
1 0 1 27.029874920660315 22.70594107268076 32.86124497495386
2 0 0 25.47190274418463 29.19304064219866 37.51019432314193
3 1 0 24.832799886167813 43.14948115199554 11.98607632422649
4 1 1 27.034387706966996 44.13494379203168 6.051001606308073
5 1 0 20.580542997036137 31.766921476978673 16.102581738673177
6 2 0 44.3777641623461 26.266035407177153 33.88913844369936
7 2 1 38.60409047739594 24.200551515320043 37.98084526293707
8 2 0 29.01830047013022 26.333120435849008 28.9773233174957
9 3 0 19.099309783772554 18.863546625513266 23.190305303217112
10 3 1 29.70959961642759 1.3345262965209321 41.074334619628154
11 3 0 20.90746018872782 21.062821760755764 30.844637725618703
12 4 0 32.95416208664833 21.942809982454214 30.442553167587235
13 4 1 33.98151776684288 17.900815708341916 23.339245938679184
14 4 0 34.29942029672045 13.07930845237208 26.269165283722664
15 5 0 21.914012047729464 16.469798724028305 20.851153068518535
16 5 1 29.338535100376934 18.579120341416136 42.99219894300564
17 5 0 18.282612808716795 28.34011196719819 20.57148074342006
18 6 0 33.31888751829383 29.4087042707533 16.194573222896203
19 6 1 46.806755225047034 40.11270851972656 8.871127302411583
20 6 0 32.617285231374616 28.60403059661387 16.19503901389663
21 7 0 29.26654797023647 7.350191532019072 33.928745830672774
22 7 1 38.15149324220431 6.87674464624055 40.17201347172927
23 7 0 28.819023490225845 18.95638326140951 35.543106649063226
24 8 0 4.090898316312849 23.862368224626817 27.404657788168954
25 8 1 3.52505135030712 14.830462963232604 8.44137211846262
26 8 0 7.033125345896881 11.71423678681643 10.255276522788467
27 9 0 21.570227397274955 7.388390554808289 25.872182025970147
28 9 1 16.08264844497055 4.620182545954571 16.743308420740437
29 9 0 16.76692934194457 15.216966566850186 29.249348072930786
30 10 0 28.98291047666004 20.60752966436965 8.862435471041703
31 10 1 34.25385257972366 15.26246045355267 10.050094097943186
32 10 0 21.889606278161214 24.161397790006983 11.43021602372791
33 11 0 24.757713663815615 43.13503765789372 13.09946782061154
34 11 1 34.9403698941173 46.77836758174716 13.13490480880018
35 11 0 33.395116120285415 41.65455709514113 17.858174689485917
36 12 0 32.94486894382207 40.905657426416724 14.038925657659707
37 12 1 42.20478156876157 38.121931682291404 10.451980299692126
38 12 0 41.971648356860804 32.44749845436195 20.597510736969472
39 13 0 33.77511246545851 31.364046676626145 43.06178848038709
40 13 1 35.81014115520602 25.680482200492204 46.57577323466302
41 13 0 34.730108088204624 24.08759731569878 41.54036089370162
42 14 0 9.80573797325623 25.28566760431168 25.46011404768871
43 14 1 13.649524808421882 29.62593834851953 22.186338145092233
44 14 0 11.595408236403653 25.105030343713146 24.080212321672853
45 15 0 9.379639638694792 21.148924611559707 31.336488600603023
46 15 1 31.82062753093077 21.847445397313603 44.28596845565383
47 15 0 27.506423453571433 21.775515664439688 44.52982381289427
48 16 0 43.37267197248659 35.699965697677406 34.61147227489121
49 16 1 44.15114613198389 36.00861098995942 46.369188675955854
50 16 0 33.577377038784846 38.15613306772065 35.6950274278753
51 17 0 40.63940973345445 18.423210303040115 29.6663339564734
52 17 1 45.444821376134115 23.3074335753373 24.548801960533233
53 17 0 32.552582309847686 27.19123307085901 23.586916219324085
54 18 0 40.53430497535887 14.402823890140198 27.990224913198468
55 18 1 42.27380795183515 2.6636900355593625 19.577772757349923
56 18 0 40.343251166766485 4.297753168535366 21.519700225952025
57 19 0 27.859206465494342 11.28344095119367 11.668686854280866
58 19 1 38.44057822124256 12.12413693893202 15.959315777776272
59 19 0 41.17137760841655 19.090461833569695 11.779603969515254
60 20 0 10.888493783510928 40.92675506429181 30.162513501130906
61 20 1 12.380406096251509 45.413211420736346 30.863179234503207
62 20 0 23.99990706071182 44.65930722372969 33.26911537338915
63 21 0 11.449098764153531 37.758293682900806 27.667604650939644
64 21 1 10.17629404170145 44.6375485090874 34.879451988187085
65 21 0 14.33026991037112 35.12943449619495 28.628136018652782
66 22 0 23.6721713706995 19.51094776344784 11.644464061547152
67 22 1 32.14013109590289 18.36285807729234 10.276879005376163
68 22 0 23.35935134463272 13.937235009316918 17.167944194420457
69 23 0 40.00654267926027 15.89012444434339 37.07718754558457
70 23 1 46.93423490976191 11.094797906420563 33.82551364824647
71 23 0 37.16955586589062 7.970347053592286 34.93368758864757
72 24 0 32.48048664216474 27.63509371769962 38.38525316182198
73 24 1 38.8033165036913 31.570304268657154 42.050098190073086
74 24 0 25.10146087645755 33.14733887752903 22.428219406068095
75 25 0 47.07519975210104 35.253221563877254 11.530456919608238
76 25 1 45.85280987639964 36.040360616919315 12.169245401704186
77 25 0 35.48271563078812 33.069048163097015 8.973654766024456
78 26 0 19.248325937166552 16.143557809252044 25.561087499607975
79 26 1 24.29051231772224 13.143540162646733 28.824858357012364
80 26 0 29.76016188837298 11.218387296055361 27.888600065087267
81 27 0 21.06225811457359 18.030755320945516 12.201208339873716
82 27 1 26.844516202391567 10.59185434729614 9.818467225866234
83 27 0 14.482338350547767 11.16305746714613 34.00569861856622
84 28 0 27.251513109775576 10.452069964120485 7.026256362300051
85 28 1 7.596502375927065 27.109322872968143 28.67362369742262
86 28 0 18.982248246783865 23.58896955975653 23.968594487155904
87 29 0 24.297965640243486 26.25166121689898 24.534426802534917
88 29 1 32.09314195666566 36.15210131531647 15.695477882571682
89 29 0 31.53527478456534 26.715479298280986 17.97110803131683
90 30 0 48.3154838352416 22.54671046823514 37.29253117395863
91 30 1 48.070186897615656 14.065448385085492 45.560757615440636
92 30 0 47.762013152174184 21.552739446935966 41.62152068234589
93 31 0 24.148402283351082 4.6821951169111475 13.523299434915804
94 31 1 29.74028977263752 3.2661111941890013 17.625265699972736
95 31 0 27.20836228819514 18.36212064524611 21.44547064234476
96 32 0 13.311509331220693 37.43966235366194 12.433368627934499
97 32 1 8.333969842116232 39.516576190180174 9.662637819848278
98 32 0 13.300357342139616 31.17941661801732 8.164872584659546
99 33 0 43.88697040291957 41.402299863971884 27.362727760872406
100 33 1 43.783044409009186 37.84101838549472 19.05851382984819
101 33 0 34.5949491877929 27.220187036253268 30.412428366180954
102 34 0 2.589654097133468 26.300373023923544 17.190347334856856
103 34 1 0.9600709269728571 35.65706339881757 9.6147025473325
104 34 0 1.7922314870800267 26.80333590451972 16.414229584378976
105 35 0 30.376226789546525 25.467413731081212 31.042450311171518
106 35 1 36.43443075381446 23.586838914271606 42.2565312184513
107 35 0 28.80035298380135 20.02502851533569 27.284021392801765
108 36 0 30.1528128714626 36.08671923973818 39.86481507029122
109 36 1 37.73020202575692 47.292810733275765 47.05836915689605
110 36 0 29.057457282115045 41.10396164917055 30.61828473105459
111 37 0 31.876063025239528 35.62366212432937 39.32965092278828
112 37 1 14.237934541532113 19.707782047057023 29.184834923356945
113 37 0 13.703194877986817 19.051190217264867 22.966486186748263
114 38 0 12.566789989360313 19.954815516083926 24.437141491897638
115 38 1 10.722804604861059 29.14651071493894 18.979541833118326
116 38 0 7.3372228777615085 42.59024725143189 22.17014182584924
117 39 0 18.139099918096335 29.640825081085115 18.383569305153614
118 39 1 24.973054613100025 32.95839598158166 15.728417637442446
119 39 0 49.3327641913701 23.360695566090666 2.1459781589216926
120 40 0 18.33894749879095 44.03847415035161 24.8477419618195
121 40 1 22.86327736973691 43.15563031318275 24.010077628094944
122 40 0 26.942522639028816 36.25527320254361 30.26672971761073
123 41 0 35.919038442802375 33.40262426562966 14.487292652475976
124 41 1 36.48831419867211 32.23926616150889 13.639833908295168
125 41 0 28.20497323656415 34.44400789258494 23.62368573055023
126 42 0 23.157443173466596 41.845228110786394 33.79637248546412
127 42 1 23.497631182325712 47.320907813611676 29.903639595218806
128 42 0 28.941760608035736 46.88120879829715 33.14881598834468
129 43 0 13.81023856262142 22.217565247791033 27.021591567359764
130 43 1 5.279993263552678 20.731952217992774 15.09088798750828
131 43 0 15.848990926434684 15.150283016845394 24.339005474647337
132 44 0 11.918044408929296 19.885526862699436 31.736722262957024
133 44 1 9.438102456143609 21.07430252923627 44.46337759167163
134 44 0 8.011712539650837 29.02425367128281 44.576048022431635
135 45 0 27.86614162570683 7.167111230976304 4.60622144622631
136 45 1 30.1906901735595 3.4050830328297477 1.4087710569693934
137 45 0 28.72910128347449 13.031508282940953 1.937102793523264
138 46 0 5.030067064740878 8.927909753462746 22.604264615016387
139 46 1 3.0188018868022732 7.860236782175317 29.503183244604212
140 46 0 14.244569599203402 28.712405931075267 15.5636480941059
141 47 0 24.733267588549126 23.03774421546691 40.16316980690639
142 47 1 45.754776708073024 5.369046412694124 38.59916590554116
143 47 0 37.03899962258797 6.864519041154272 36.972806125788814
144 48 0 7.091105903996887 22.47081592655835 10.70777490380125
145 48 1 3.5897405530946487 17.38685751930328 3.343138162252348
146 48 0 13.961630725180477 18.56914281662181 8.277902779951853
147 49 0 22.39598183817336 27.60263017210616 29.766037546085595
148 49 1 14.527590589718972 19.939729757161686 39.57614396997813
149 49 0 24.38105252933158 27.992751248792075 41.5276180369641
150 50 0 9.62746970870202 47.727525086058456 12.448811787694941
151 50 1 7.354754341830296 46.260817283872534 12.864953178705541
152 50 0 20.361878377507086 38.95635169349007 21.075572083947545
153 51 0 26.679028455786742 29.31576682555871 14.268548477004595
154 51 1 19.172151761425674 35.74625769988504 12.332978931628041
155 51 0 15.602300124129309 31.767762651287146 13.192344166836907
156 52 0 45.41362414498954 25.23946648662787 37.165463969164996
157 52 1 46.9142742261465 31.116008206541892 42.302852693846496
158 52 0 46.994163629487 33.52818876573882 39.91853637560016
159 53 0 18.1546915547214 25.662899450116115 12.828797134145427
160 53 1 6.085365886095607 15.75611577418097 9.140583429635411
161 53 0 10.148623568862277 12.66102263772469 15.371533052814037
162 54 0 17.524086062745287 34.20460196842135 35.722042620909605
163 54 1 15.31511046273007 31.905015148978897 30.07846828338655
164 54 0 25.279704814200795 26.70631750890794 29.169824771735286
165 55 0 12.83001176261999 24.43009865474945 17.923611853778663
166 55 1 10.951662098024212 27.575522956418876 17.52498825901909
167 55 0 14.31694413096511 25.860609920269717 23.10941562519018
168 56 0 8.926822446688428 23.220857151364783 28.688596238403537
169 56 1 5.719862163603377 13.70369593255032 22.860264568428434
170 56 0 5.440348688163208 14.601843993393809 27.257861790609347
171 57 0 18.810407806848144 21.948554801890115 33.99941066967651
172 57 1 12.591921851249998 18.06726533975391 33.07453647836102
173 57 0 21.637412045519564 20.632661664558405 27.470261186619066
174 58 0 12.851034094011911 29.28870620783703 30.527539122581675
175 58 1 17.34204670100612 26.642562814620536 42.38146217224726
176 58 0 13.733244040303303 24.702977098783148 30.74403034250849
177 59 0 13.15521735796076 14.684303952309723 24.306976518065127
178 59 1 11.754182334065563 7.956654303466774 29.014231127003946
179 59 0 18.470012093561387 15.280971003891255 34.573332123797265
180 60 0 20.097923599132557 42.90545715336597 10.734028176551382
181 60 1 28.44941330595483 47.18815678246855 3.0399493111634905
182 60 0 30.661830092428364 45.34448203740112 9.632767721536657
183 61 0 39.477838272479616 34.5736628434347 48.24831227481413
184 61 1 14.313588698261352 16.23191016323676 35.51591928948867
185 61 0 14.033599086931494 20.24701954455024 30.687847894126374
186 62 0 15.19021597852785 47.26293938193442 39.05210092257444
187 62 1 8.480461472136588 48.36043957949044 42.361089968312825
188 62 0 13.855742098085441 44.52930680850826 37.46913278198382
189 63 0 45.50807189759397 15.402374684703814 21.53291081232396
190 63 1 44.902432267551646 5.329016740926442 10.63469177702985
191 63 0 37.50334770559871 17.26113394243862 11.545591494580941
192 64 0 40.8008834897888 17.933618208835764 18.518359287481147
193 64 1 43.41381983945724 9.241581122482202 31.962012431858142
194 64 0 36.96995981710819 7.282567382916287 33.21645666754207
195 65 0 6.872122487168006 31.29558937188531 25.929014302078034
196 65 1 5.129162769112547 43.09635122539641 35.1546505343089
197 65 0 9.553050881246545 36.705403312615125 32.24201410326274
198 66 0 20.04566701953091 29.47871306824275 39.913001691610496
199 66 1 22.58584996391007 20.088219420381247 47.12560815764002
200 66 0 18.340096214553746 18.65486360091758 43.296494278394356
201 67 0 10.538508754511248 18.367489947952688 24.94183620402238
202 67 1 13.917898292198213 13.098802854814986 25.30838876013695
203 67 0 15.485994147433983 16.120030597279303 22.559333583180933
204 68 0 27.28662057373084 22.612425523810884 23.6301147859156
205 68 1 18.57124169854922 29.43491248045566 31.179162295639806
206 68 0 18.68142923056304 35.898994514899144 27.292197815823524
207 69 0 44.13664589804584 39.600603402913876 38.48410927489268
208 69 1 47.73134109366064 42.85009336255058 37.054665100444886
209 69 0 44.06130139454619 35.32008576975026 28.329366329213595
210 70 0 19.202388263125794 31.426765410766837 42.60205382354676
211 70 1 24.466509081643274 36.467430388367205 46.55374265764913
212 70 0 19.17296234682075 27.49498662255798 41.66999337057879
213 71 0 44.63379760658837 27.595793019100533 28.126047292078994
214 71 1 47.21368601469149 21.53784547346553 20.420503590850007
215 71 0 35.65554159940225 25.05096429334429 23.807761740332275
216 72 0 34.059452846747696 9.471281285482055 14.287290234755902
217 72 1 30.176728055729882 11.418208742022111 9.717653968028552
218 72 0 34.02819501867646 8.833113752476727 13.822365490858784
219 73 0 16.09679709203343 35.99401238476318 19.977125788326166
220 73 1 20.24223111850881 41.11445138059538 8.215828445968432
221 73 0 18.351152382148573 34.92412765415037 11.415452464161993
222 74 0 26.00282470427766 28.569319912926897 15.05114159646552
223 74 1 22.89082896418384 32.99079253109672 6.737527971263192
224 74 0 25.094676535174358 24.513368367216046 16.54245454303253
225 75 0 14.627683343589023 25.15178018949685 22.748906939576305
226 75 1 7.058279313830882 20.146654611305294 21.20992088046399
227 75 0 9.544129722122161 14.344421609834951 25.900385102468615
228 76 0 23.500751660345053 41.32905963460281 15.279610742275928
229 76 1 31.140599331656137 45.31477751184509 7.287066813906641
230 76 0 34.94169905185247 32.73000141372531 12.67900187746802
231 77 0 13.70890909376596 9.679127713471596 23.080717288643857
232 77 1 11.299096698911693 2.7060037789701243 24.991670927603
233 77 0 20.31038392762105 7.192202750647709 20.970635557580945
234 78 0 5.185288199303699 9.651410741868085 6.6344866819945585
235 78 1 6.042728606400041 12.497852357930942 4.535438378399881
236 78 0 5.055506526834619 21.865569244707427 5.442788524503218
237 79 0 14.666978065254359 19.49339519375763 22.37103708609085
238 79 1 9.262749356442901 11.462062772304112 22.398444828491222
239 79 0 14.305959085097088 13.032735126495927 27.474682535237058
240 80 0 42.26183018100016 28.784574779874486 30.193847852542625
241 80 1 44.06927605537025 21.940665993852196 41.92549528255251
242 80 0 41.27083822058829 29.938419407317447 41.120974440613125
243 81 0 18.525957081311137 17.335486962013555 22.73088586241002
244 81 1 18.837377404498078 13.571842320706027 24.768158699229765
245 81 0 12.180079075528225 22.270218762569055 25.989549246616598
246 82 0 34.42211909509912 2.7851993576521594 7.507664722648628
247 82 1 46.04928933709466 0.6725385300537924 10.099750636207498
248 82 0 41.89294342617249 1.6213142676793353 20.182055025866678
249 83 0 21.881599278038777 33.795377745744744 39.1234848861651
250 83 1 15.788901732229245 27.174698441358178 44.157899595456705
251 83 0 10.833295473770903 14.76190623457517 25.86522594770342
252 84 0 16.902159489585745 28.596877827742027 19.946539394826633
253 84 1 16.277937105138435 40.111875756379774 23.35373590930062
254 84 0 18.027126163941393 33.52991402381111 29.6160462443048
255 85 0 47.25324269135425 42.48585032560369 28.150381630614145
256 85 1 46.77526283703285 38.802770746299416 32.13716686032447
257 85 0 36.75661415706435 30.59029653879793 25.34555399811563
258 86 0 31.311412063124557 30.70509531803096 35.8603125962796
259 86 1 24.85952993246884 37.20647161046219 41.407240951615464
260 86 0 19.19341036367221 32.57588729627821 41.80793500677017
261 87 0 23.493253368323654 4.693675547763404 16.6349214908741
262 87 1 15.855663463095091 4.823390332392534 20.3257542676973
263 87 0 12.458922151099483 11.942328643205435 18.028404189916465
264 88 0 40.523269521602714 15.255386221065548 23.747027481970523
265 88 1 44.54019069345299 19.21338714544592 13.20411382872902
266 88 0 35.184573185009235 20.808514301397363 9.546890913734055
267 89 0 42.541036183917925 27.560742574164557 37.901599979211085
268 89 1 39.586016925671316 34.97841102864592 46.13913099929856
269 89 0 32.83776689924694 38.2080497296508 44.0856967412211
270 90 0 29.068379996786952 16.144055335374603 9.86601477322331
271 90 1 40.64686959068185 7.476504985198765 11.636816461676423
272 90 0 31.814186949396117 10.90069419167217 19.182151377767156
273 91 0 19.636431304610884 11.306327952347564 5.930219679355312
274 91 1 16.851347803548535 5.750978084919959 8.67368655460621
275 91 0 33.67648551431262 8.554259655999154 13.321660727195876
276 92 0 28.355359248566657 16.518252267500113 26.048204292095406
277 92 1 9.208853055807438 34.149122426948125 32.058432208855464
278 92 0 18.45307917060686 31.00632772306893 35.0862994885303
279 93 0 15.289656696034747 10.901602237036986 16.041994340538963
280 93 1 20.97319258980473 9.510298103003455 8.197334538388674
281 93 0 26.960550964296576 13.596968902165417 18.43693497295788
282 94 0 36.030300310259115 37.51233546526236 41.40237295456908
283 94 1 25.311418769967784 43.08641482696779 36.66869638641459
284 94 0 17.588983565068478 40.76949760092246 39.53364233650857
285 95 0 17.08631350435045 14.907297676333508 38.86906235650728
286 95 1 9.794086073271524 17.42154301817979 44.698018096161086
287 95 0 20.153917301451862 16.546395018980085 36.81202915162596
288 96 0 19.216606959107203 44.505864955484924 18.877122179095167
289 96 1 14.86291477190158 42.439573566078366 23.98384567754591
290 96 0 23.50302708208161 32.71563104670799 24.917980337082017
291 97 0 25.647463351366177 8.707604500245711 15.955673642220432
292 97 1 31.72533345183218 1.9947443973499044 4.947712874282461
293 97 0 31.752832303997497 14.848980454004025 13.624917531445446
294 98 0 21.240865055084527 38.778333294120564 37.602767251101156
295 98 1 17.273865291545984 38.74792083345214 36.322341048302384
296 98 0 13.963318843079799 40.17796591054043 31.805878591761825
297 99 0 29.920537439377753 22.80861179633887 37.65448148944091
298 99 1 44.988772378169635 6.598400685922693 47.967208832958036
299 99 0 34.81100370147079 24.93638966646655 30.382927757768186
300 100 0 15.012046339558836 34.838332305272935 33.9024870490117
301 100 1 4.646130291745116 41.59820090899234 42.939609849391175
302 100 0 4.704370736692948 34.5452042657385 33.24248029130203
303 101 0 30.914359866705734 19.746272804589054 5.070454290558635
304 101 1 40.78108616553562 9.842972848231888 3.3233913473058947
305 101 0 44.54425763042093 13.983598167109731 16.947192771421673
306 102 0 30.0032228891446 21.654800863703972 40.72712767112766
307 102 1 26.420601341750242 24.59152781775152 44.21933659003902
308 102 0 26.727015822406187 29.92640376411375 41.83244009859035
309 103 0 30.54603261814862 14.228855008359618 15.271688056120595
310 103 1 41.71518464232117 4.5173172262777825 17.33340362269802
311 103 0 31.32721400737381 9.304765091057133 22.38504926215789
312 104 0 31.35715739948501 7.741647107016227 13.257183671481295
313 104 1 38.13795071593817 8.193010125629918 11.937978956069077
314 104 0 28.413661533916265 15.98456931367787 14.377999266792575
315 105 0 29.604610699702096 38.503823591045744 12.944474559475793
316 105 1 36.05147413121538 39.230181474753365 11.26826469499826
317 105 0 40.01047593770205 30.028362372160668 12.178927161252044
318 106 0 9.039704956836175 15.881620955801253 25.680116616358173
319 106 1 24.572548857999728 40.81392160969341 41.81326036319144
320 106 0 20.863405740242523 38.406125607986255 31.471911002349344
321 107 0 24.998825611891085 30.037681769663397 9.003622105107114
322 107 1 26.20406259016868 36.23824642596456 6.108819908064456
323 107 0 31.785001041673173 36.564339267096265 6.810171815342678
324 108 0 22.08436078894258 26.038405771529995 26.391048949773374
325 108 1 13.357725674304842 24.482955275047207 16.32167030114299
326 108 0 12.610176470570616 27.29592410567733 25.51113124604864
327 109 0 43.788513510531224 28.44176680067215 37.995529470412706
328 109 1 45.10421984372439 24.842499522220365 42.291032732255694
329 109 0 38.68798544850321 23.412092972482277 36.21199687536568
330 110 0 16.339838933271785 29.86788405400812 5.856769650013159
331 110 1 23.016011408535267 35.83242826466305 3.4745027649712
332 110 0 24.15754884822308 39.64654994847474 6.057283824068341
