ITEM: TIMESTEP
45
ITEM: NUMBER OF ATOMS
66
ITEM: BOX BOUNDS pp pp pp
0 50.0
0 50.0
0 50.0
ITEM: ATOMS id mol type x y z
0 0 0 27.17498398085682 25.898715135200316 32.049175679609085
1 0 1 27.01142189635001 22.86322359774501 32.916024281982
2 0 0 25.867932163080024 27.56114157532479 36.33230585990492
3 1 0 25.35288005809395 43.36358786036903 10.568982359491006
4 1 1 26.893179569847977 43.91255754758736 6.308688004018767
5 1 0 22.321252589913207 35.109406877936905 13.396966958396353
6 2 0 38.81538335230553 28.672183982568313 40.8193715230492
7 2 1 38.362902252596044 24.38803468311431 38.017008306412464
8 2 0 31.535972398639686 25.80176061617801 31.425731566472567
9 3 0 23.50793615639024 28.29892500944218 27.902214906936166
10 3 1 15.682486204372394 35.51395422583546 23.85571567402647
11 3 0 18.027873336212647 28.463361385148907 25.168492478512906
12 4 0 33.214549793987366 20.910992027863266 28.650778933260625
13 4 1 33.969300523862444 17.894430139278914 23.49478526137873
14 4 0 34.21919288486686 14.241984852278256 25.58409902653537
15 5 0 20.49130682461837 17.017602475853646 22.24214204159223
16 5 1 16.846463281888436 19.25570646384144 26.46100153199096
17 5 0 17.770025743347 25.796949132232438 22.087210199452933
18 6 0 11.969197694954223 18.878013107990324 18.09209394896484
19 6 1 12.354622451459882 21.840047218906435 14.052893650277463
20 6 0 11.381731349613524 18.3141856525636 18.074127416219653
21 7 0 31.562272311029158 7.254256760475501 35.54707894844604
22 7 1 37.8523212384731 7.08593907451239 39.993892416574326
23 7 0 31.310808230224943 15.706614992687086 36.77399449114734
24 8 0 13.721828419185531 17.85896113414194 13.8122406186304
25 8 1 4.662174887096638 14.519472175136153 7.855662568180483
26 8 0 6.679616826685332 12.253298688769599 9.517558139732657
27 9 0 25.614776777984762 10.80692460032246 29.034924323576586
28 9 1 26.931478032312107 13.535320701063583 27.44697421901284
29 9 0 22.17295042831267 16.941207131745628 31.499337649800918
30 10 0 30.53155427348362 18.989828172101692 9.325085394194678
31 10 1 34.632018592472065 14.708924050216869 10.502923071489562
32 10 0 33.67131052633693 11.568754163890683 17.217443811219308
33 11 0 27.41168664265755 44.07518179786652 13.118496977786501
34 11 1 34.751857153382645 46.64083168050334 13.206753017062692
35 11 0 33.75720892063618 42.91581884509864 16.688666390253
36 12 0 23.493365025481697 47.57119106759747 33.58551542246911
37 12 1 25.608324942254846 48.212845305194165 38.42814278889121
38 12 0 22.53310399748442 39.11734450552352 30.805455536056574
39 13 0 34.2758306707689 29.957726149248426 43.920936508890954
40 13 1 35.76318266424657 25.744401125271434 46.448334684384015
41 13 0 34.98062505240489 24.471461593685575 42.718588653236374
42 14 0 10.74021449600643 26.34323933614102 24.662485473669193
43 14 1 13.559764538571839 29.495581647228292 22.262106830780034
44 14 0 12.072036350031356 26.15298472368145 23.639306210329952
45 15 0 31.413234269672582 23.597484298056823 41.379818014688865
46 15 1 31.85570412153799 21.890554657496264 44.28939670438701
47 15 0 28.49915662651711 21.797456604493455 44.4833611777314
48 16 0 43.9497887602561 39.48024495613374 38.354493863804365
49 16 1 44.00948271207503 36.52993784259999 46.093823820631314
50 16 0 36.434236247107656 37.82614399766463 38.57901815289095
51 17 0 26.188903975229433 32.45736644947021 42.08429288621979
52 17 1 23.669316376235027 40.40654569020736 43.30847430813884
53 17 0 20.038437414465765 38.81513174756871 37.576387839490344
54 18 0 31.005102275370373 13.71781239206082 15.905149119136462
55 18 1 41.12096352530779 3.16382986254113 18.68944120853327
56 18 0 40.337563894352485 4.092329944991235 20.777151724793548
57 19 0 30.642557441237987 11.520487139166772 12.787295734387625
58 19 1 38.31150945781121 12.220264177153668 15.823629085667054
59 19 0 40.45291034497109 17.315863353620326 12.833623626517765
60 20 0 11.227024026306584 41.9397449641509 30.323733907563774
61 20 1 12.39863089207704 45.26260596716243 30.87706566648887
62 20 0 15.725792910119868 41.800160663279996 32.18303853703622
63 21 0 11.297378751519402 39.404916925565935 29.689007156166802
64 21 1 10.284669181719403 44.35877415650725 34.682378271145325
65 21 0 13.248598278127508 37.61329567360773 30.27001785538198
