ITEM: TIMESTEP
47
ITEM: NUMBER OF ATOMS
66
ITEM: BOX BOUNDS pp pp pp
0 50.0
0 50.0
0 50.0
ITEM: ATOMS id mol type x y z
0 0 0 27.16605380759967 25.724718284622785 32.09734699150002
1 0 1 27.007052609612785 22.89436946868696 32.92773182892867
2 0 0 25.94677033431415 27.23680487028657 36.0968141258315
3 1 0 25.45255024583484 43.39918984715129 10.293367047043365
4 1 1 26.86526830495999 43.86857155731537 6.359519307493273
5 1 0 22.66816223333467 35.777580602535785 12.85928090780694
6 2 0 38.78407902183915 28.385213030923968 40.63058466541201
7 2 1 38.33320735409628 24.41248549332676 37.99822710036886
8 2 0 32.042397296811295 25.697518971194064 31.915015002892044
9 3 0 22.917934395385384 28.842432558441292 27.597137711330365
10 3 1 15.729850794630297 35.44838674473318 23.880655617664292
11 3 0 17.860045492423243 28.968942232821327 25.07453298505524
12 4 0 33.26685132697535 20.701733750814896 28.29380424049147
13 4 1 33.96702863222807 17.89297043376575 23.52538488808912
14 4 0 34.203242652464446 14.474599374015812 25.451479484166015
15 5 0 20.239089623411406 17.17324816025439 22.533720995191278
16 5 1 16.866380325008777 19.275602529844555 26.423011892861336
17 5 0 17.70357018985183 25.322965796939798 22.403465574355568
18 6 0 11.995900809812795 19.075607301384746 17.824161144491008
19 6 1 12.348892684352958 21.812807442649056 14.086695050053374
20 6 0 11.446703907076826 18.5524300629103 17.801237724163048
21 7 0 32.01490859746914 7.243102962026045 35.86723414869168
22 7 1 37.79325968200096 7.127253352961231 39.95874684981466
23 7 0 31.803156900294724 15.056740192200458 37.016168405388676
24 8 0 13.038604243574696 17.60687417295955 13.363057742195638
25 8 1 4.71235494944085 14.52685556331631 7.889893814169915
26 8 0 6.559960450432262 12.387248959013464 9.419040665160495
27 9 0 25.692746261783753 10.96848951292723 28.94089252166983
28 9 1 26.9054079446322 13.54040897806144 27.470900696421882
29 9 0 22.51210145953691 16.698228426993413 31.210546241507178
30 10 0 30.815689610538904 18.6925705824017 9.407746143672387
31 10 1 34.60998489095574 14.713365295858235 10.527912148017139
32 10 0 33.739709790681715 11.79495455281599 16.73495191499123
33 11 0 27.941682458230193 44.260149357757456 13.12516424107195
34 11 1 34.71458663527134 46.613657418048994 13.2209398962242
35 11 0 33.823541819766355 43.16563963797766 16.455009539568394
36 12 0 23.635568305087936 47.61403593175928 33.91109727574864
37 12 1 25.58485424980093 48.167000649840524 38.371643832720046
38 12 0 22.7664321504413 39.808015145481306 31.3838564272334
39 13 0 34.37542863459319 29.67559258835017 44.09018236670463
40 13 1 35.75389126962253 25.757060517200607 46.42314856476919
41 13 0 35.0297024003219 24.551058301291835 42.952328737666505
42 14 0 10.925673707082947 26.552336116192162 24.50448256781782
43 14 1 13.542322745107052 29.469630952799164 22.27738022881267
44 14 0 12.16564166113456 26.359091109382568 23.55293215535567
45 15 0 31.43979260221604 23.496576129858997 41.55181854398742
46 15 1 31.841693288155117 21.89653104354692 44.279337807541566
47 15 0 28.69675706727899 21.802728964703608 44.472298064677645
48 16 0 43.95327615315929 39.26561008196807 38.917064005145846
49 16 1 43.97374337772351 36.54940786784412 46.023484664986725
50 16 0 37.00257834445675 37.72925864231271 39.14187453967779
51 17 0 26.004460263186726 33.03760705965416 42.17294794416263
52 17 1 23.664701993030683 40.36327523726914 43.277489855298676
53 17 0 20.29671104236805 38.92721745052535 37.98348470743659
54 18 0 31.7849629830781 12.90418454361252 16.119987821788232
55 18 1 41.069776810797656 3.217574326877854 18.682415037309415
56 18 0 40.37669064746118 4.046045492638436 20.6747321562927
57 19 0 31.201612133685128 11.572192342168698 13.008097446457645
58 19 1 38.28598129043626 12.23927725657706 15.796806423350462
59 19 0 40.30231127379539 16.959946565204824 13.041989294572877
60 20 0 11.296871171731206 42.139791672753134 30.356760781998407
61 20 1 12.408079188526079 45.23570963534237 30.880417917830798
62 20 0 15.50481167527046 42.03047223526757 32.09630609772161
63 21 0 11.225174882539907 39.757133914482985 30.04373233977906
64 21 1 10.302707885679384 44.305957862230045 34.64005563979527
65 21 0 13.03214390061108 38.10612275090274 30.592524548688978
