ITEM: TIMESTEP
48
ITEM: NUMBER OF ATOMS
66
ITEM: BOX BOUNDS pp pp pp
0 50.0
0 50.0
0 50.0
ITEM: ATOMS id mol type x y z
0 0 0 27.16173168140233 25.64224077656651 32.120484457243734
1 0 1 27.00497194092456 22.909177522246004 32.93330942113623
2 0 0 25.984382886271877 27.082353741985756 35.98443532488472
3 1 0 25.499489285656086 43.41520941902541 10.162989144611029
4 1 1 26.852002325909094 43.84765267083086 6.383669112673651
5 1 0 22.833478646750045 36.09626314459206 12.603261673559164
6 2 0 38.76833708781101 28.248392168066903 40.539695634526694
7 2 1 38.319086101555506 24.424113857653463 37.989296279868576
8 2 0 32.284080347854804 25.64828616373336 32.14879580044697
9 3 0 22.636814709362376 29.100794843350027 27.4517891427325
10 3 1 15.752360997995455 35.417233793550984 23.892508254943213
11 3 0 17.78100400393198 29.20903165336229 25.030240667304636
12 4 0 33.29182965933579 20.601527200611017 28.12370297694107
13 4 1 33.96594785785852 17.89227803861993 23.539938760305898
14 4 0 34.195557231869785 14.585884732754884 25.388718688729636
15 5 0 20.11888256147432 17.24825123774248 22.672305700136622
16 5 1 16.87584821557423 19.285063707171922 26.40495138435423
17 5 0 17.6722909361583 25.096583600611098 22.553849070095072
18 6 0 12.008609584384724 19.169471386863908 17.69692032157769
19 6 1 12.346169282315035 21.79986379925862 14.10275542101417
20 6 0 11.477569432943337 18.66566523338605 17.67151262509553
21 7 0 32.229905558271774 7.238861942156959 36.019479923342274
22 7 1 37.76519366643967 7.1468917724202745 39.94204667925376
23 7 0 32.03721621464848 14.746766429662177 37.13112538218114
24 8 0 12.712869481443985 17.486381563875838 13.148939106934959
25 8 1 4.736217022148438 14.530385124669545 7.906169693971913
26 8 0 6.503902101750646 12.451267472620435 9.37274494528394
27 9 0 25.729492318917956 11.04585045509009 28.89642173224287
28 9 1 26.89300667139792 13.542835160035654 27.48228154552639
29 9 0 22.673775325324204 16.582047880171988 31.072923660612148
30 10 0 30.9511823819508 18.550332158640344 9.447987402651608
31 10 1 34.599506756755915 14.715477648051316 10.539795160384578
32 10 0 33.7718648410337 11.903396754164284 16.50457932517223
33 11 0 28.19438867033728 44.347970096549545 13.128729380553391
34 11 1 34.696865463618 46.60074135576023 13.227680634517123
35 11 0 33.85437457451794 43.28447597600398 16.343592827207587
36 12 0 23.702934347899202 47.633417917617486 34.065270192018424
37 12 1 25.573702850164544 48.14520204471186 38.34479883310104
38 12 0 22.877488681185298 40.13741136098895 31.659203220295996
39 13 0 34.422865743447474 29.540899431293358 44.17057376664966
40 13 1 35.749472346940365 25.763083524195753 46.41117169818536
41 13 0 35.05297471603328 24.589390217929818 43.06357133067543
42 14 0 11.01390280432552 26.651788849306115 24.429316754173676
43 14 1 13.534031092131219 29.457301162276604 22.284640571782884
44 14 0 12.210076793130964 26.456910904442204 23.51193109027193
45 15 0 31.452230294916223 23.448431928502647 41.63388394102773
46 15 1 31.83502587399967 21.89937507042405 44.27455094606808
47 15 0 28.790990556011753 21.805361756501163 44.46681989933951
48 16 0 43.953987691899606 39.163428900596664 39.18436957316374
49 16 1 43.95675639979142 36.55865912622948 45.99005985645264
50 16 0 37.27365852447152 37.6834197790679 39.40936592732672
51 17 0 25.916030365269645 33.31422424327809 42.21454844403581
52 17 1 23.662509620259886 40.34270470826471 43.262761721277904
53 17 0 20.420218795680274 38.9797282543812 38.177534700304555
54 18 0 32.156953602275685 12.516096734460769 16.22266796584877
55 18 1 41.045417029558806 3.243150269736892 18.67904909863071
56 18 0 40.39445628595787 4.024917851309518 20.625907200143647
57 19 0 31.468613279387327 11.597473047942612 13.113091599101034
58 19 1 38.27384266641406 12.248317416761996 15.784052691929586
59 19 0 40.229530857469534 16.79002201766392 13.141057430123036
60 20 0 11.330418326907258 42.234873313768084 30.372602605011895
61 20 1 12.412576892206683 45.22291924533541 30.882013733352306
62 20 0 15.399321656554086 42.14004605307262 32.054894775730475
63 21 0 11.191077336182222 39.92424956542046 30.21228074041918
64 21 1 10.311280359531297 44.28086128170281 34.61994737148902
65 21 0 12.929061307801767 38.340543331746375 30.745744993669618
