ITEM: TIMESTEP
51
ITEM: NUMBER OF ATOMS
333
ITEM: BOX BOUNDS pp pp pp
0 50.0
0 50.0
0 50.0
ITEM: ATOMS id mol type x y z
0 0 0 27.16658102624303 25.78395799461417 32.083945912112235
1 0 1 27.00503241152735 22.88407076626 32.92780927219662
2 0 0 25.917396754926973 27.347377079543307 36.17991085734991
3 1 0 25.419040643695826 43.387790534061686 10.386987505612105
4 1 1 26.874623034070748 43.88356088702847 6.342232730339193
5 1 0 22.550129841449834 35.55045339796373 13.042079075886166
6 2 0 42.72082768987282 25.68907630345961 35.017426566144394
7 2 1 38.52859951354164 24.274958629638625 37.73992662931359
8 2 0 31.92089020876493 25.69706473229054 31.674910666198695
9 3 0 22.388042396875125 13.447751837796842 28.74909501208555
10 3 1 29.335136278707182 2.0529185422449343 40.53176388246767
11 3 0 23.61012734135497 14.984320232489917 33.9669853280291
12 4 0 33.249325919258844 20.772377546351073 28.414886113800257
13 4 1 33.96857866241638 17.892219192579134 23.514160110345404
14 4 0 34.211264583481245 14.387294900254016 25.498188969393382
15 5 0 22.416764671255812 19.977820670373504 29.213570938375483
16 5 1 23.372277644527802 27.524616959348585 46.84514310260255
17 5 0 19.933669697050775 28.08504412446948 29.006442924624164
18 6 0 33.600240591836744 4.3566327650959265 11.974831221086179
19 6 1 46.23068761943836 39.513471275260756 9.173238740400784
20 6 0 36.944278441964606 32.10895605015415 13.96294328199266
21 7 0 31.861504211557463 7.246992572800099 35.75801001179321
22 7 1 37.81329688119322 7.113134773504278 39.970741125577405
23 7 0 31.63517903592879 15.277350184384245 36.93427675785103
24 8 0 3.8965064389477564 21.08876823763336 21.650418109180784
25 8 1 3.4884733448131677 15.054458147793742 9.210203312865515
26 8 0 6.088371362978994 12.581367538084613 9.918854245165715
27 9 0 19.950991453697252 6.60225428666513 23.212535598895702
28 9 1 16.195826307152956 4.8709061552557245 17.146425355351603
29 9 0 16.574824939734842 11.991381678602938 25.46056015077198
30 10 0 30.436428022967455 19.125622726323254 9.199060373940554
31 10 1 33.92920304688551 15.523111135132156 10.055441578651722
32 10 0 25.63076470152229 21.472809413884843 11.007994733214383
33 11 0 27.761499537714677 44.19721457144311 13.12293113468539
34 11 1 34.72726705614505 46.622850602741735 13.216171192202328
35 11 0 33.80099319786172 43.0806814964394 16.534487520850075
36 12 0 35.667090176662576 40.07013250706143 13.014422874649165
37 12 1 42.03201603767126 38.06812776600751 10.703974302787337
38 12 0 42.01325762418277 34.14395147961814 17.59000689258607
39 13 0 34.3415812779057 29.771480289075377 44.03270274489658
40 13 1 35.75716891208232 25.75269111419367 46.43180639073362
41 13 0 35.02486289179021 24.517674109318826 42.87051843084341
42 14 0 10.863540956889022 26.480506605181702 24.55915361788487
43 14 1 13.549729514196592 29.477316263395032 22.27372983477866
44 14 0 12.134678058802336 26.28830829651904 23.583256451619775
45 15 0 16.377384392977007 21.36781202352534 35.381344424623315
46 15 1 31.324457789894417 21.838877000624716 44.039217772625584
47 15 0 28.517385877053435 21.792345057456796 44.44472123101242
48 16 0 43.5721546509663 35.798317881276446 38.077104218849165
49 16 1 43.9381890409466 36.04329258075483 45.952260195073556
50 16 0 36.78559000295517 37.50311799364681 38.90000048992898
51 17 0 41.98412846927854 19.839475927598183 28.191472495093628
52 17 1 45.11895982737819 23.292940046307567 24.62193875443198
53 17 0 36.42154822936572 26.006939621359354 23.891809066379675
54 18 0 41.67921617056388 13.999691075809775 24.758140951685448
55 18 1 44.49018491376971 14.1318517427957 17.133654919176333
56 18 0 41.53348084844735 6.961365435470314 20.251104236400977
57 19 0 31.011862803763123 11.553905117168165 12.931502694681233
58 19 1 38.29465285668068 12.232833077735059 15.80593208397032
59 19 0 40.35347527168462 17.08097089119631 12.97115973238281
60 20 0 11.307839320310986 42.09046987310536 30.34899499413772
61 20 1 12.579175220488676 45.33001266332803 30.883956414511573
62 20 0 20.532766425349664 44.87253435132268 32.54769443718808
63 21 0 11.087455811634799 39.74532684978847 29.760018839697018
64 21 1 10.276067989538408 44.337361658996535 34.63341641446958
65 21 0 13.09550742229438 37.94538586203888 30.472542291190155
66 22 0 26.08391929754412 19.16867824125805 11.26986101800786
67 22 1 31.82725362386032 18.301599870374616 10.42845901403949
68 22 0 25.953489050041586 15.259916363288683 15.117279759720732
69 23 0 41.98469312447647 14.493476261800456 36.13907155865486
70 23 1 46.6324858390305 11.123874082266152 33.90394032362773
71 23 0 40.01969229892969 8.901944640476877 34.617134270155
72 24 0 34.24519440051817 28.763029474424414 39.37388492532682
73 24 1 38.427631358533446 31.531244957392936 41.60721839328485
74 24 0 29.347666112037633 32.64432196802928 28.525561179612936
75 25 0 46.89141042314085 35.35118216399181 11.608304664043038
76 25 1 45.67193029077889 35.97920016853592 12.105205331918881
77 25 0 38.56085108247405 33.94931825465161 9.920679815114518
78 26 0 20.666516874331872 15.303860512685386 26.46571058367285
79 26 1 24.29562158858496 13.16280227437895 28.75305806623627
80 26 0 28.260321327474923 11.749992444011575 28.132851128253357
81 27 0 22.71025511688063 15.862835731746491 11.581576067481578
82 27 1 26.5009122040873 10.737044781600996 10.329667751363843
83 27 0 18.331638232904723 11.007998322379866 26.44594465961616
84 28 0 21.096497563032973 15.688398606484828 13.831100097036861
85 28 1 8.190118560501602 26.719566482201074 28.164707711723388
86 28 0 15.639478831227352 24.588621758888017 25.306624179926455
87 29 0 26.665561686276664 29.232626041776577 21.85471510709056
88 29 1 31.93641195965467 35.79560430555799 15.902833298391442
89 29 0 31.67532001747679 29.438479195595033 17.33318946610133
90 30 0 48.24178855547684 20.041894538633723 39.74245091939707
91 30 1 48.069255036092095 14.35463360401005 45.3383652766585
92 30 0 47.8506447499871 19.430588541296327 42.72987916106702
93 31 0 25.707470486798098 4.328819785981292 14.683242052083077
94 31 1 29.595676806991136 3.5753119113534324 17.626247280783844
95 31 0 27.963098899935723 13.768275939954684 20.269829224624093
96 32 0 11.969554775910282 37.985208266191044 11.676581262928892
97 32 1 8.507820912208437 39.33044811939942 9.682132845623837
98 32 0 11.860721441337427 33.6117850665502 8.609670344435072
99 33 0 43.829121722867434 40.33903425201559 24.992512428722492
100 33 1 43.610306422907136 37.70295840538501 19.422956817254853
101 33 0 37.416607970006396 30.4924229231413 26.951585679728343
102 34 0 2.1073325751046004 29.065945255422918 14.950857488243464
103 34 1 1.0054112398260016 35.32216507697427 9.879104126167519
104 34 0 1.5490962937082906 29.39613284045816 14.423293253494004
105 35 0 32.167947460206705 24.893487723955563 34.356767754784755
106 35 1 36.17677617421095 23.554682804489058 41.765377242201986
107 35 0 31.117442817300354 21.120620682578625 31.830789091212665
108 36 0 32.42613781680344 39.469918810486824 41.9967576396125
109 36 1 37.4225358488926 46.964367645225714 46.60980027625388
110 36 0 31.70679083676427 42.975854247357454 35.66344683677518
111 37 0 26.36580534295848 30.650960115056513 36.14259276912286
112 37 1 14.569695256680092 20.004362915527516 29.275209546253947
113 37 0 13.903690835630481 19.280175124765574 24.71286014201622
114 38 0 12.011140276840777 22.713364954607854 22.829080823782885
115 38 1 10.6968542366424 29.208533039106378 19.11983047617439
116 38 0 8.36814376291392 38.489362695442175 21.21847718001591
117 39 0 20.175793455711226 30.561851285013283 17.57925447073233
118 39 1 25.32488655117226 32.71324170683099 15.511774460282687
119 39 0 41.666451873637044 26.362087301767723 6.4170829070727775
120 40 0 19.51914783380726 43.79198201024907 24.647850253457474
121 40 1 22.86516538961592 43.044198948776646 24.13730293758982
122 40 0 25.732162163475646 38.284674299480514 28.43100162988515
123 41 0 35.849323575037204 31.18194951152984 14.033143961923939
124 41 1 39.75504472917164 9.50070170087391 1.4834043456183978
125 41 0 30.573371642871823 31.737182699044254 20.25205704656833
126 42 0 23.26477930140114 43.365317864705816 32.72262595865548
127 42 1 23.5845532976314 47.219146517551955 30.02596136196137
128 42 0 27.44367275991991 46.98933073474852 32.26540438067273
129 43 0 11.25818900543149 21.746712459792633 23.4362927302939
130 43 1 5.638194281098238 20.654950970809534 15.488022917918189
131 43 0 12.668581180042851 16.84866608193392 21.56971148898373
132 44 0 11.1687150008171 20.266297924095806 35.56079298745748
133 44 1 9.458987028154974 21.192799024494335 44.2287312436436
134 44 0 8.426806745279041 26.747941728436288 44.50635278380346
135 45 0 28.47991959103622 6.18730074782763 3.759192591544652
136 45 1 30.125966418625808 3.641510677652344 1.4708811003691462
137 45 0 29.150733523834692 10.228609050588755 1.7899748235390742
138 46 0 4.478838362697226 8.69987385504622 24.569423103939208
139 46 1 3.14610135842676 8.348622719728086 29.527273457927137
140 46 0 6.065276956047807 24.75465641785358 34.761053265660706
141 47 0 31.285703268092504 17.512037701534144 39.6684233432266
142 47 1 45.19219454143896 5.738016225119512 38.600488675541456
143 47 0 39.48820530323714 6.486226436613915 37.44613486887113
144 48 0 6.099923454314696 20.99247681467872 8.575331166946816
145 48 1 3.8436457120890544 17.500305964671277 3.566719475463345
146 48 0 10.890247915683375 18.232437909365935 6.832889348817672
147 49 0 20.0423132140411 25.305617441258804 32.74481348540204
148 49 1 14.857860236384514 20.23275502063494 39.4284521361795
149 49 0 21.450444944322456 25.60144340023745 40.912006459978926
150 50 0 9.176943108974745 47.41253088520518 12.547663373106197
151 50 1 7.631398021648355 46.14059840917326 13.015875163955473
152 50 0 16.386107523584684 41.194866670715584 18.5619669908463
153 51 0 24.466290741958094 31.191738235069174 13.701781418769166
154 51 1 19.2468948191758 35.5628039175925 12.377358153332056
155 51 0 16.573277478592242 32.812462224048396 12.967063635328437
156 52 0 45.84171743084539 26.9204118438404 38.62524381317682
157 52 1 46.88886739359361 31.046761020127686 42.17755625952574
158 52 0 46.97263483806732 32.95522964457728 40.46347359908164
159 53 0 14.486868175158415 22.633068741678645 11.722929366807344
160 53 1 6.3841312313268785 15.888247447294491 9.320071678828596
161 53 0 9.024431770328903 13.573153731771844 13.604372852059452
162 54 0 16.941103003414856 33.555256761449805 34.16074156914342
163 54 1 15.535924904318255 31.848808334267716 30.158208137388648
164 54 0 22.329336442824886 28.255214372377132 29.45517721038811
165 55 0 12.395571392459491 25.17605248724237 17.82037977771915
166 55 1 11.033986650732666 27.52086728422608 17.64667199863875
167 55 0 13.384701726732095 26.33544838104043 21.562319147079425
168 56 0 7.972480701915727 20.392781324162748 26.965748357030634
169 56 1 5.774690423074473 13.89351340217107 23.036692408616194
170 56 0 5.517057236456181 14.393022397380378 26.15791365882309
171 57 0 17.084386485368803 20.86354062740886 33.72529826887161
172 57 1 12.865859690621924 18.18184904699576 32.98793193620246
173 57 0 18.980072008650303 19.884608641342307 29.12928376201176
174 58 0 14.185860560417236 28.490216032979852 34.04972196534231
175 58 1 17.182583692378778 26.658761549801238 41.957879976587826
176 58 0 14.796550218085194 25.289977592802384 34.186089638153256
177 59 0 42.7151839317563 42.63718052567601 37.24838278747799
178 59 1 12.247424143735342 8.547467970544744 29.13797628269563
179 59 0 16.50838540624567 13.152926706988815 32.91790612821389
180 60 0 22.597702623889873 44.178994672249495 8.455353128378865
181 60 1 28.331825864352187 47.07224375663579 3.2983760038411525
182 60 0 2.838022373257104 46.242352943695266 8.706251883137455
183 61 0 31.54800447035418 28.806446284628507 44.22143781229007
184 61 1 14.799748597361823 16.657963383183333 35.682205625969516
185 61 0 14.18207118666697 19.19987010802697 32.04824617040605
186 62 0 13.309728324915632 47.56500490110036 39.975292321499396
187 62 1 8.693039840797889 48.273372268998976 42.216553093252024
188 62 0 12.334971963336653 45.62038813380259 38.85861848850828
189 63 0 45.30118329448633 12.385586934566254 18.231382940724416
190 63 1 44.775595637549266 5.740821655199487 10.856092521638132
191 63 0 39.73982878955868 13.68917720722797 11.304700916942618
192 64 0 10.028192046189496 30.553031868986746 23.894348774448805
193 64 1 42.951057580269776 9.517013787458492 31.740793656384085
194 64 0 38.74137337272155 7.8606894250894745 32.82904090595517
195 65 0 6.355694640508437 34.858806255917926 28.72057761953126
196 65 1 5.240082611084346 42.76155848834562 34.929730104088314
197 65 0 8.294597974846555 38.498860971634905 33.04917488289446
198 66 0 20.79255338944034 26.67123704999579 42.05596663911867
199 66 1 22.467713461283363 20.237898730009597 46.92798400407606
200 66 0 19.483761176106345 19.067352636752865 44.31524967120464
201 67 0 12.910156146919316 16.087990686880353 22.764209302436313
202 67 1 17.74866071439527 1.7780658678111159 9.111722684363901
203 67 0 16.376276911313727 14.559172470622464 21.089255727675575
204 68 0 24.662585828836455 24.685887011629458 25.891798459347896
205 68 1 18.735626874164033 29.42095523120653 30.97039601604549
206 68 0 18.675664571572277 34.048591078443124 28.370880708199955
207 69 0 45.068617142972606 40.43312651718753 38.08945161721742
208 69 1 47.6052014681115 42.658097642738895 36.91631088760445
209 69 0 45.14756402939147 37.5595120943246 30.937714492187972
210 70 0 20.691337628282536 32.84511509152326 43.71806619543843
211 70 1 24.276068617052893 36.21318956752218 46.39403909194275
212 70 0 20.73106705826329 30.14445932872611 43.10945487409419
213 71 0 45.35508701975678 25.824905450153356 25.873415266633263
214 71 1 46.94177068462578 21.681310153053637 20.605025439042105
215 71 0 39.10606493643219 24.012808244388683 22.814083651098493
216 72 0 33.00354449372983 10.003669354762119 13.046490440800616
217 72 1 30.30794097848861 11.341348886932176 9.864807835036652
218 72 0 32.98465444476402 9.530024113199604 12.708141483353325
219 73 0 17.33963001917649 37.518528712816206 16.445360382182812
220 73 1 20.132730186278437 40.91192898777035 8.491696133227151
221 73 0 18.906079223390027 36.654487085915356 10.615276642475822
222 74 0 25.100546334083603 29.838233525534232 12.650261262218535
223 74 1 22.988041364622035 32.75316547766496 7.070160746070411
224 74 0 24.441355235687514 27.046082216281082 13.621453399143718
225 75 0 12.435656138299677 23.68143798826281 22.31504954826122
226 75 1 7.238195952253354 20.134417260751984 21.320249682762203
227 75 0 8.857478771271255 16.01066838635316 24.569068919578186
228 76 0 25.754851151670724 42.40051866689988 12.958593701442922
229 76 1 7.775533852059262 41.87068467039173 32.47170634417089
230 76 0 33.734596414888216 36.44755652230607 11.116085055055766
231 77 0 13.050895060016707 7.719883041452678 23.6105022684293
232 77 1 11.506142405523166 2.910092064734642 24.884661607982856
233 77 0 17.65566983897359 5.885992953238859 22.15302724516781
234 78 0 5.387696914274205 10.360334848690798 6.134566559396321
235 78 1 6.012243125423381 12.62463970430082 4.582855269411181
236 78 0 5.3409767072954155 19.12786992507374 5.18391043128536
237 79 0 13.102718112390566 17.15298125453736 22.392445200356875
238 79 1 9.448316199582978 11.63464652491221 22.486278982513987
239 79 0 12.901836089574783 12.612338594977883 26.043348365132275
240 80 0 42.79858039918273 26.744724115499164 33.72838843181189
241 80 1 43.986014734517944 22.2110114347058 41.69231243827427
242 80 0 42.06937697765389 27.661173552034228 41.31859603344538
243 81 0 18.592437957307467 16.413665687606905 23.239654066577934
244 81 1 18.710173617050877 13.789861725084325 24.75922957578394
245 81 0 14.150712532089733 19.708166349371677 25.623788447179024
246 82 0 37.768634209343176 2.1830985683557493 8.269482627008081
247 82 1 45.08086442077501 0.8894954915418343 9.967009494234773
248 82 0 16.23179834649546 7.479460988322902 5.399357317546431
249 83 0 20.074691250181644 31.807893986782577 40.54530825978944
250 83 1 15.813905565737999 27.053671075068646 43.70334011636677
251 83 0 12.393559141190066 18.637960343038106 31.530188728696135
252 84 0 16.72099100566657 32.01264454229718 20.981225030921674
253 84 1 16.320311762811034 39.782090474157876 23.403568952670472
254 84 0 17.520982351405525 35.40787710191732 27.788041551284014
255 85 0 47.09808228429182 41.47851214727811 29.19792054640117
256 85 1 46.59510672533297 38.70951662892824 31.943752338681353
257 85 0 39.79420623894789 33.08948885526245 27.392650453203867
258 86 0 29.39008788268593 32.611575922468475 37.499356453325134
259 86 1 24.878631833688463 37.00688535124392 41.31283299086173
260 86 0 20.80909209896204 33.86295899433379 41.679261091873684
261 87 0 21.286026802433852 4.751233722291754 17.69035257370023
262 87 1 15.93143422414114 4.9473052095956245 20.219208284607326
263 87 0 13.453936499427527 9.902069736422764 18.676203531142598
264 88 0 29.92218206912528 44.84424779607023 19.189350385247646
265 88 1 44.182578823802096 19.417970434049213 13.329286892359816
266 88 0 37.912647741650204 20.341773284715455 10.652492777571863
267 89 0 41.64281834021901 29.775174456188342 40.344223673030164
268 89 1 39.521647532896225 34.89877044368662 45.95147817942351
269 89 0 34.765609381975835 37.267872972642245 44.64564368235618
270 90 0 32.546349517095564 13.530334928099697 10.425503338993659
271 90 1 40.26277428022123 7.703198564149308 11.74334206192353
272 90 0 34.412979754496085 9.905924293643528 16.92601849281326
273 91 0 18.910380392854677 9.770334830224968 6.705140534788878
274 91 1 17.221735591784032 5.89227906921132 8.712745094989012
275 91 0 28.527219823607204 7.695437898405391 11.897419244218154
276 92 0 22.398668273283636 22.02046145520712 27.936879505472334
277 92 1 9.746674149741823 33.75110233717618 31.996977922878884
278 92 0 15.80458614298016 31.872427328029154 34.18092141210308
279 93 0 16.968409501808097 10.507031561359609 13.77949234027756
280 93 1 20.981372095057576 9.611175221169088 8.528891061831716
281 93 0 25.151003337128124 12.377562085090476 15.39456232447045
282 94 0 32.786625991072064 39.17991354958246 39.988936864059454
283 94 1 25.37300013966537 42.94150925449705 36.80774780460458
284 94 0 19.847415153505082 41.420463841697796 38.72218055977014
285 95 0 14.990690642881411 15.635601276150695 40.545028206990054
286 95 1 10.118088972504916 17.359971566146285 44.44638410083465
287 95 0 17.065551131329567 16.802752178887957 39.16226593950008
288 96 0 18.02273382638096 43.90014018503506 20.308705695250477
289 96 1 15.099560993007822 42.29340877336967 23.912581399939175
290 96 0 20.919860056105463 35.64283597719901 24.622581699432672
291 97 0 27.484134280299713 6.719131079513316 12.656339026338387
292 97 1 31.612259167433894 2.3619498073539105 5.316674046201933
293 97 0 31.72528218060156 10.962045023967177 11.021071539019095
294 98 0 20.240800947636483 38.77552257456875 37.26847011801405
295 98 1 17.279676515321142 38.77224875777461 36.26668828264816
296 98 0 14.870391015153437 39.79152254488932 33.03061369862444
297 99 0 34.57829514298907 17.822757286804627 40.8064698303673
298 99 1 44.50184984186121 7.265133724102201 47.42858388127986
299 99 0 37.94400348827059 19.254502995826645 35.848947117283295
300 100 0 11.862671791749857 36.87049543951231 36.61841843655586
301 100 1 4.842073084254098 41.34112710397643 42.59099416328996
302 100 0 4.718644978959843 36.626204435060316 36.104422386853535
303 101 0 33.91217268881462 16.776457692498344 4.5950045239635156
304 101 1 40.69745520193451 10.171169019373545 3.674265171481769
305 101 0 44.62746319338332 15.546049288766676 15.33701381043156
306 102 0 29.033951931455427 22.462805160346832 41.66692869079068
307 102 1 26.485829731120646 24.631358366498628 44.12112846552695
308 102 0 26.652660500939636 28.47212642218475 42.471421610036195
309 103 0 33.901435990712066 11.29832650764833 15.912433013408625
310 103 1 41.31346403480504 4.7880640529656295 17.388206757568803
311 103 0 34.39953437430155 7.902698865392623 20.868236132102076
312 104 0 33.21693360718089 7.902105285852484 12.887069513751731
313 104 1 37.84494784523043 8.330494565899961 12.006039428493875
314 104 0 31.30951876246347 13.648895129470644 13.650506675714128
315 105 0 31.408321032945064 38.680065757253054 12.48092267984653
316 105 1 36.0124857053868 39.05053009786184 11.313649701117447
317 105 0 38.83060044281096 32.726434911590005 11.916429206440608
318 106 0 13.92095844481206 23.728290805593865 30.728960182816206
319 106 1 24.20200012179398 40.28394746542006 41.30977915135677
320 106 0 21.91091417373435 39.03889510678916 34.47884597521437
321 107 0 25.349941381795148 31.772014076677014 8.196102429180828
322 107 1 26.276238126659322 36.13631777943042 6.1706512962461515
323 107 0 30.279669712466326 36.46102635805895 6.628630780393684
324 108 0 19.45590701207157 25.57862937841622 23.388091874991396
325 108 1 13.50614121503737 24.562872496977114 16.676074782909566
326 108 0 12.853176038056121 26.48042809575129 22.861755856655282
327 109 0 44.12850158897651 27.469382968840367 39.13867079319238
328 109 1 44.96659895798744 24.876582263163215 42.11056869564998
329 109 0 40.50917661065931 23.85318512175089 37.98361920066727
330 110 0 18.284257638008043 31.612605389481494 5.1710197835232306
331 110 1 22.914112781436195 35.78623146954831 3.558773190963796
332 110 0 23.84315605919825 38.641165034505995 5.394138738494618
