ITEM: TIMESTEP
53
ITEM: NUMBER OF ATOMS
66
ITEM: BOX BOUNDS pp pp pp
0 50.0
0 50.0
0 50.0
ITEM: ATOMS id mol type x y z
0 0 0 27.141615647648738 25.271001307064363 32.2268827323841
1 0 1 26.995515835018473 22.976225498371882 32.958683748933645
2 0 0 26.155795435339062 26.380826927043657 35.47204838098006
3 1 0 25.707925583227336 43.479908645188466 9.579050008418289
4 1 1 26.79198485091388 43.752873495476486 6.492819335783307
5 1 0 23.58532079754557 37.54803033754409 11.44079595853436
6 2 0 38.68924594711045 27.625402823623908 40.11786195586327
7 2 1 38.25512927707028 24.476791537823473 37.94885362659986
8 2 0 33.386485951723685 25.42843325484685 33.217704933988536
9 3 0 21.35876487135899 30.26994828791422 26.791104514309804
10 3 1 15.854180205465568 35.27641310278093 23.946118798478008
11 3 0 17.429958594331982 30.29303345335128 24.833164161210245
12 4 0 33.405926354877465 20.14139237415607 27.350155763057177
13 4 1 33.96104876870355 17.88915828560282 23.605883968641585
14 4 0 34.159848653066675 15.095938131224383 25.107142039703287
15 5 0 19.572036469577416 17.596854043861637 23.29931560300412
16 5 1 16.9186965414357 19.3279142513593 26.32320074544189
17 5 0 17.533563241524693 24.062370788683907 23.23484979572614
18 6 0 12.066574911856737 19.59379439629344 17.122500624571735
19 6 1 12.333846016978589 21.741339152436375 14.175357695157073
20 6 0 11.61677654431177 19.177739295322944 17.08429589267087
21 7 0 33.20119739427025 7.229238666212519 36.70886681104575
22 7 1 37.63828081393237 7.23575864998126 39.86653999937418
23 7 0 33.09653015289314 13.334519305006253 37.64984548619539
24 8 0 11.23007406084386 16.935118903145803 12.174546351232655
25 8 1 4.844299729383953 14.546563205608125 7.979869613608839
26 8 0 6.257373592732203 12.743677309582365 9.167937620371712
27 9 0 25.89306342193084 11.400919969407507 28.697103871000152
28 9 1 26.836795981153646 13.553887485284498 27.533859968071887
29 9 0 23.409572952051036 16.05013754693728 30.446987863661686
30 10 0 31.568291418588196 17.89805090127678 9.63877439440419
31 10 1 34.55204786369565 14.725048839771903 10.593610867404454
32 10 0 33.91408714836605 12.402550678179768 15.452720133968553
33 11 0 29.344940049704554 44.74446243941982 13.148425192121366
34 11 1 34.61662258538796 46.54230409948019 13.258153895973507
35 11 0 33.987710443042026 43.82298017388408 15.836326043115069
36 12 0 24.005577720533406 47.71248260701093 34.7573248218072
37 12 1 25.523296341111084 48.04648422146178 38.22344105550371
38 12 0 23.381350388489757 41.63783456752389 32.90887152319906
39 13 0 34.63839155368819 28.92616538780518 44.53391904813502
40 13 1 35.72945109453491 25.790395606345346 46.356921750609224
41 13 0 35.15782396995853 24.767167085194163 43.568247193510665
42 14 0 11.413561344098635 27.10261854125764 24.08881014010443
43 14 1 13.496495902978594 29.401566796375874 22.317501602757115
44 14 0 12.410968690581749 26.897808656851637 23.32665330789579
45 15 0 31.506974489504298 23.228956823900123 42.00801558109694
46 15 1 31.804775750218038 21.912278509470756 44.252832188308005
47 15 0 29.220209322065614 21.818345138113887 44.440174640680965
48 16 0 43.948667933382275 38.699703845561444 40.39281295378336
49 16 1 43.879902864637714 36.600483188252255 45.838918397646836
50 16 0 38.50863522364786 37.47796031676281 40.61918598649087
51 17 0 25.508992278908565 34.573266127742755 42.39786745389284
52 17 1 23.652599414720726 40.24959849930005 43.19611647324176
53 17 0 20.98581960816264 39.21038321215972 39.06054150171171
54 18 0 33.85198092316996 10.747801919507552 16.692383670403704
55 18 1 40.93489129211408 3.3591843343987278 18.66357825345674
56 18 0 40.46783530080904 3.9366623999144204 20.403728559807046
57 19 0 32.688349308690334 11.718308429216078 13.5885475357046
58 19 1 38.21887582961266 12.289249402582579 15.726303757228585
59 19 0 39.88928154950772 16.014267174885095 13.589599831858184
60 20 0 11.485099131460938 42.66514704853949 30.44547692024306
61 20 1 12.432998760198474 45.164979504470175 30.889259821308443
62 20 0 14.918004942794568 42.63686283993217 31.86588212678318
63 21 0 11.038694467425895 40.67760691915234 30.974103734305817
64 21 1 10.350051406783493 44.167393232468186 34.52905670700159
65 21 0 12.46099262446355 39.40262090355919 31.438373995469792
