ITEM: TIMESTEP
55
ITEM: NUMBER OF ATOMS
66
ITEM: BOX BOUNDS pp pp pp
0 50.0
0 50.0
0 50.0
ITEM: ATOMS id mol type x y z
0 0 0 27.134304382048853 25.139951589635302 32.265157985521306
1 0 1 26.992135198591072 23.00006537859055 32.96776857954328
2 0 0 26.21719646763211 26.130439175388698 35.2884160437941
3 1 0 25.78020634808475 43.499667451348124 9.374479726608278
4 1 1 26.770672281750887 43.71914200641808 6.531521255035415
5 1 0 23.85404063306316 38.067975183863894 11.026135009352751
6 2 0 38.657629007927 27.40234193441293 39.96327104585347
7 2 1 38.232386719455945 24.49553012934904 37.934476160900914
8 2 0 33.78198592808538 25.351676887574865 33.60233234190906
9 3 0 20.902227198096654 30.685209046720587 26.555147163552718
10 3 1 15.890324987321044 35.22647409356805 23.96514896184154
11 3 0 17.30818534168824 30.676807521291398 24.76464235196685
12 4 0 33.44692888921583 19.97498170153506 27.073676156515933
13 4 1 33.95930450669297 17.888056084800876 23.629350880545275
14 4 0 34.14675544233136 15.279985078811848 25.008150833413236
15 5 0 19.376506035913064 17.72475210358324 23.521997735561072
16 5 1 16.93391852922984 19.343153061482038 26.294151143974926
17 5 0 17.485541561364347 23.690651272390735 23.476961476882902
18 6 0 12.0875684616897 19.744410936289963 16.91924643990943
19 6 1 12.329468141941886 21.72057523626168 14.201107380938415
20 6 0 11.665829166316351 19.35934579714659 16.875554916333233
21 7 0 33.54540556204596 7.230036865387786 36.953872956689345
22 7 1 37.59324891516596 7.267324367335084 39.83975388574624
23 7 0 33.47283242205634 12.828669478589564 37.83341720653007
24 8 0 10.699474986095469 16.736648117257563 11.826007548719158
25 8 1 4.882746708584069 14.552414737005511 8.006075230790367
26 8 0 6.172820648219243 12.84852286200569 9.097186125900723
27 9 0 25.95004179173764 11.529212458925205 28.62708774063505
28 9 1 26.816782840403018 13.55784848438806 27.55222054120425
29 9 0 23.67280386391163 15.858467541820291 30.223235284559753
30 10 0 31.789295409390697 17.66246188444534 9.71045617951827
31 10 1 34.53517030629559 14.728454635473273 10.612745506194734
32 10 0 33.963116977104214 12.583652180061687 15.074875275207843
33 11 0 29.756717370188387 44.88490339771669 13.156986575891628
34 11 1 34.58809311674891 46.52155179466744 13.268963074280684
35 11 0 34.032405145665756 44.01457628775277 15.654818299965493
36 12 0 24.112033565931196 47.73689779836249 35.00051552683868
37 12 1 25.505420886688533 48.01137697174105 38.18039735090128
38 12 0 23.560902210764404 42.17513653558022 33.354379440208156
39 13 0 34.715338830982944 28.70552538886991 44.66283807915922
40 13 1 35.722326263530256 25.80012635850924 46.33762348178294
41 13 0 35.19488889944439 24.832130457155717 43.74810998512939
42 14 0 11.555547878099537 27.263262829196513 23.967806916486808
43 14 1 13.48315274184319 29.38180081869193 22.32917998833832
44 14 0 12.482466992876207 27.05341004943466 23.260798794042547
45 15 0 31.525821633316305 23.150282193578516 42.142137355129194
46 15 1 31.793989481195823 21.91687948270569 44.24508762681698
47 15 0 29.373925911263164 21.823388552026834 44.42995983844432
48 16 0 43.943013096479994 38.534437391509464 40.821439953082205
49 16 1 43.852612226889036 36.61531828606867 45.78529153110369
50 16 0 38.95094042669334 37.40586541066728 41.04858889354209
51 17 0 25.36134241043874 35.02373135887095 42.46077835405834
52 17 1 23.649084656955058 40.21651723499863 43.172445481928435
53 17 0 21.189705364610337 39.289217141377165 39.37636725714663
54 18 0 34.459270826614045 10.114302456620917 16.861484563571132
55 18 1 40.89548562860184 3.400549729435825 18.657977355021938
56 18 0 40.49103485640883 3.9083134554239503 20.32424302154903
57 19 0 33.126771649038844 11.764125718812215 13.757577977618064
58 19 1 38.19933444870914 12.303799820660029 15.705774405935733
59 19 0 39.76352994990316 15.73563957281433 13.749046057183062
60 20 0 11.541169764711032 42.81804403651773 30.471828642563363
61 20 1 12.440288754322076 45.144364847638045 30.891846549005702
62 20 0 14.745346403941657 42.81382690404575 31.79805248915127
63 21 0 10.985338228538204 40.943892629553346 31.244146875058128
64 21 1 10.363812959115156 44.12714042155184 34.49682707854233
65 21 0 12.294111685626671 39.78035395358433 31.684095340179162
