ITEM: TIMESTEP
58
ITEM: NUMBER OF ATOMS
333
ITEM: BOX BOUNDS pp pp pp
0 50.0
0 50.0
0 50.0
ITEM: ATOMS id mol type x y z
0 0 0 27.14326110000299 25.34963641630586 32.20735141100142
1 0 1 26.994041645521875 22.962287778841528 32.95731871294848
2 0 0 26.11656929714852 26.53022725726411 35.58435311822162
3 1 0 25.66443410177657 43.46755248849789 9.70213355049849
4 1 1 26.804580498628216 43.77302342585006 6.4696912457529026
5 1 0 23.425373923332227 37.239131842286255 11.687758417359484
6 2 0 41.95699398384906 25.435546827930896 35.501759067288056
7 2 1 38.494338184236575 24.308287227708668 37.634847687756846
8 2 0 33.23299267831749 25.417349751729454 32.871662237339926
9 3 0 23.83532425213781 11.082533636827437 31.203678811868713
10 3 1 29.171214361088104 2.3674308936032467 40.294191200169024
11 3 0 24.78806630703559 12.31785109275116 35.31255921151141
12 4 0 33.381970592818796 20.239037189405526 27.514226990110956
13 4 1 33.96288060463759 17.88848618304134 23.591110401086368
14 4 0 34.16978774023209 14.980364791770306 25.167645103379463
15 5 0 22.61258911336528 21.563897474856375 32.89189862060797
16 5 1 23.31511155611325 27.433498222247266 46.3833355821906
17 5 0 20.652326295914825 27.95705206098152 32.71715058497093
18 6 0 36.30914270568081 11.923739659432758 11.377915627257224
19 6 1 45.94396966901534 38.9491531012814 9.27142597668907
20 6 0 38.823057999765844 33.57118616550269 12.988618475615137
21 7 0 32.99577625057907 7.230315727577997 36.56233270791897
22 7 1 37.665142804003324 7.216833553029937 39.88259832013936
23 7 0 32.87138269983411 13.634778715188025 37.54036384050588
24 8 0 3.815347818655762 19.843835744794802 19.090200808191657
25 8 1 3.5202647609921423 15.106697986782793 9.376670425719238
26 8 0 5.664171048814596 12.991390338316997 9.81576091456717
27 9 0 19.23141753450444 6.277613884385916 22.058061009019436
28 9 1 16.245280732462803 4.980825403196598 17.323318296564466
29 9 0 16.502552674989268 10.557378120268098 23.79071297783498
30 10 0 31.07865812664447 18.479392925939322 9.388795257417767
31 10 1 33.787006425530905 15.637151065471093 10.05802855874796
32 10 0 27.28965076417342 20.284003124032832 10.816937365917319
33 11 0 29.100177664557307 44.660419934104645 13.143904788669747
34 11 1 34.63365671544846 46.5546519444791 13.251749131876148
35 11 0 33.96008032543779 43.708668020607824 15.944271409558622
36 12 0 36.88128152525282 39.6799884431176 12.575375533337462
37 12 1 41.95620945173944 38.04448766071197 10.814539162241054
38 12 0 42.009595920440006 34.90899939229359 16.254193761733
39 13 0 34.59262429643997 29.057043244257382 44.45695527860564
40 13 1 35.733939000573635 25.78446169191994 46.36849899662134
41 13 0 35.145841952243394 24.7235373795005 43.45892852092228
42 14 0 11.329808613782218 27.00607011158 24.162100348372515
43 14 1 13.505939844869363 29.412260640223547 22.312076230584108
44 14 0 12.369286102320142 26.803752902805165 23.367022545022365
45 15 0 19.497440834338125 21.466177745399243 37.1902315151093
46 15 1 31.10504869011741 21.832318398299012 43.92966444433055
47 15 0 28.90790285216479 21.79881318918413 44.388721464825494
48 16 0 43.635300197714805 35.84742609065344 39.59658345987644
49 16 1 43.84481828058571 36.05850454633321 45.769646857572205
50 16 0 38.2165779181082 37.21069451869944 40.30234828670713
51 17 0 42.55441753853666 20.48075975083219 27.53083569201392
52 17 1 44.975946865142824 23.28669475678937 24.653960663306368
53 17 0 38.139491823922185 25.465918490932477 24.04030278584492
54 18 0 42.22377395145764 14.01731195136661 23.275515791088043
55 18 1 44.420195139390614 14.043075088582487 17.263902039813097
56 18 0 42.108785591866436 8.364188623795306 19.64984066147533
57 19 0 32.42866918136484 11.691420675213681 13.486462562549425
58 19 1 38.23053190191505 12.280582316358931 15.738548380975745
59 19 0 39.96259815351383 16.179564678001604 13.494444179893843
60 20 0 11.5209439980854 42.61209207555526 30.436924603738788
61 20 1 12.66294405158403 45.29204647522608 30.898774276817342
62 20 0 18.979473809814493 44.95843474545541 32.22249610884535
63 21 0 10.935401406077485 40.60863318142652 30.676982629851835
64 21 1 10.319792812251572 44.2058933888726 34.52571409337637
65 21 0 12.547938192495304 39.185554064529775 31.27899085479379
66 22 0 27.13801494016319 19.00658725791499 11.118245157730996
67 22 1 31.68857619338121 18.275318317893998 10.49246002972761
68 22 0 27.092321020942347 15.85307177677689 14.204789499438071
69 23 0 42.84516137718683 13.863553016434645 35.723129502720155
70 23 1 46.50017287136271 11.136578319797577 33.93831409705523
71 23 0 41.2763788806884 9.328666975451867 34.48318622840967
72 24 0 34.99478228374692 29.26621445683412 39.76599281333744
73 24 1 38.263118749572904 31.514457907429048 41.4129164976628
74 24 0 31.230234097972186 32.409721998465955 31.24222752811327
75 25 0 46.788232904843234 35.39445190240711 11.641545155938022
76 25 1 45.592270389591015 35.95193865151292 12.076726381327294
77 25 0 39.93876832470737 34.341921838281586 10.343330689952294
78 26 0 21.313962043295096 14.923392910639453 26.868763979445514
79 26 1 24.297740235425067 13.171232213231425 28.72154813567081
80 26 0 27.576546607708767 11.995076105688021 28.234993637540065
81 27 0 23.413407426378228 14.898954758174662 11.3656200945446
82 27 1 26.35031004945903 10.800424172230583 10.554039728651091
83 27 0 20.037854519149548 10.957752427865131 23.072000136825388
84 28 0 18.37498486316258 18.020071502135195 16.860696759692516
85 28 1 8.449876046975387 26.54874735163357 27.94167302558242
86 28 0 14.20485278970386 24.990048727200662 25.845593885339664
87 29 0 27.72181457439621 30.541449306190355 20.663185828752653
88 29 1 31.867638195750157 35.63949926963207 15.993760870462223
89 29 0 31.719448355072323 30.62733581933515 17.069899080564262
90 30 0 48.208321703449904 18.94064784871771 40.82639469530109
91 30 1 48.06886662791761 14.481217173768927 45.24089880270527
92 30 0 47.89034523688123 18.50651070843295 43.20538896358247
93 31 0 26.398018571113084 4.205410195084052 15.21001244561204
94 31 1 29.53225471093327 3.711192067502882 17.626786297388804
95 31 0 28.28730262545851 11.717597198129823 19.734440083544417
96 32 0 11.382939827954088 38.21163650617961 11.33756581093162
97 32 1 8.584025980169312 39.2486801305938 9.690554422888896
98 32 0 11.228058932671736 34.69363809091876 8.813934084921781
99 33 0 43.78117902957278 39.83896369960383 23.962123921169628
100 33 1 43.53444316362443 37.642227336626966 19.582774029712276
101 33 0 38.67836455722044 31.964196835070002 25.42491799447119
102 34 0 1.8950084447920426 30.278688765868527 13.968382863541132
103 34 1 1.025273272858258 35.17555086827658 9.994862336228175
104 34 0 1.4436213449484212 30.52921411351794 13.553635975238544
105 35 0 32.94739710632551 24.62925998244234 35.79670253619459
106 35 1 36.06432269994354 23.540345347922848 41.55026536587411
107 35 0 32.13687580237427 21.61448683687394 33.83305401395678
108 36 0 33.418036518956185 40.963358517727656 42.905601453173674
109 36 1 37.2878053381698 46.82058585134957 46.41330852478985
110 36 0 32.87058075523099 43.78292544728392 37.898471998656625
111 37 0 23.90006609053997 28.425351413501094 34.70194591348419
112 37 1 14.71553996510797 20.134644230171798 29.31444591523282
113 37 0 14.036976512668533 19.421181590533095 25.526581989704354
114 38 0 10.779769440522166 36.5035798269448 31.940474756583647
115 38 1 10.685219878182853 29.357535489517133 19.279322175273954
116 38 0 8.835037609651101 36.636496624167364 20.809258762161257
117 39 0 21.155682251087924 30.953299337887863 17.18235348700238
118 39 1 25.479043400420263 32.60540531445652 15.416774052490522
119 39 0 38.22009053134608 27.696038210127885 8.334059190568468
120 40 0 20.058251364582226 43.66690026032177 24.57088047908265
121 40 1 22.865917205280873 42.99515648804581 24.193328974633012
122 40 0 25.181056954578107 39.19443750649165 27.611544067059405
123 41 0 36.66696085214836 26.602666346754553 11.391915030266208
124 41 1 39.58587664247311 10.084313240679435 1.9074222407416073
125 41 0 32.534665769048736 27.006504173615504 16.251184837348095
126 42 0 23.323245561896233 44.04327614430955 32.249418093499
127 42 1 23.62274083039514 47.17441588627451 30.079718958188078
128 42 0 26.774210711806983 47.027080562732976 31.87849207269662
129 43 0 10.146464473817641 21.52491771974683 21.859638313348363
130 43 1 5.795065732403408 20.621208507030794 15.661939903961414
131 43 0 11.270354181053635 17.610356091499483 20.36365658870301
132 44 0 10.83013700607714 20.455629965137284 37.27147371889945
133 44 1 9.468166509888475 21.24484523909391 44.12562657516386
134 44 0 8.61842887485626 25.726184712914357 44.44534414168271
135 45 0 28.74859504066606 5.770394068592828 3.3859581674353576
136 45 1 30.097681754259025 3.7453101354488583 1.4979218958460194
137 45 0 29.33452563381529 8.984794875922255 1.730328206581454
138 46 0 4.242306059447324 8.656488815699372 25.46884179371525
139 46 1 3.1989242490528547 8.565676593204104 29.539831683348474
140 46 0 5.456633141408465 21.32517380352141 33.66070984220272
141 47 0 34.19286743879544 15.045776945326905 39.443262349726275
142 47 1 44.945898888017744 5.899997028481886 38.601241396556446
143 47 0 40.52179641038537 6.360774941316034 37.65923031123944
144 48 0 5.681697759482144 20.336159910106588 7.6359705098474
145 48 1 3.9549691648612235 17.54999177891292 3.664677601365691
146 48 0 9.527286139095088 18.093890005864903 6.204863473790075
147 49 0 19.015648178369897 24.29976099442121 34.08024388911383
148 49 1 15.002568743287345 20.36115268028814 39.36369285132458
149 49 0 20.161790033054487 24.55301345084583 40.612792430266225
150 50 0 8.997525310016748 47.263985220537506 12.602617866828599
151 50 1 7.753461358491512 46.08717418966291 13.082722978304625
152 50 0 14.612509712734639 42.1982118439574 17.437450084718822
153 51 0 23.46902478857136 32.0221768488986 13.449880551258616
154 51 1 19.281120014142882 35.48251101464872 12.399166542480923
155 51 0 17.022862381854676 33.26665912138806 12.870007966833787
156 52 0 46.03330539704069 27.676407029300545 39.27382668611242
157 52 1 46.87765231360873 31.01617312037979 42.12226865462257
158 52 0 46.9605281149285 32.688665553562224 40.69947481590642
159 53 0 12.856834281407243 21.271036114812617 11.243572163751693
160 53 1 6.515395503873198 15.946436200717931 9.398775681739439
161 53 0 8.550901682215112 14.003257752043865 12.824451435512767
162 54 0 16.702112064362996 33.253646354023545 33.46072431491038
163 54 1 15.632992329870612 31.824059739431675 30.19318791657638
164 54 0 21.015067427689527 28.9529632781633 29.595433423108908
165 55 0 12.203692768738204 25.50687623052753 17.78940774822284
166 55 1 11.07053354485196 27.494237180652664 17.697668608555563
167 55 0 12.97100034752666 26.545239057005784 20.87485802762441
168 56 0 7.5455291083258444 19.13091676044661 26.204478983962847
169 56 1 5.7989210890924365 13.977155646374241 23.113943339760212
170 56 0 5.556091394095421 14.316708607510288 25.68320432696029
171 57 0 16.403889527669314 19.78438075399745 33.78090397583427
172 57 1 13.896625235340277 13.651601781911635 34.53936259714299
173 57 0 17.893581116758924 18.964285471703906 30.0948766679529
174 58 0 14.77015406931117 28.130441827471625 35.59648391722848
175 58 1 17.08892159561972 26.676463344301197 41.80706580950986
176 58 0 15.257566940815257 25.558602872582505 35.69608192420483
177 59 0 36.120208219319046 35.257987307678746 35.49640156048239
178 59 1 12.707886173937455 9.06075737750636 29.291749478824237
179 59 0 15.735985943447567 12.31947413584261 32.2095175547016
180 60 0 23.67539754761265 44.69729642517668 7.508486209238393
181 60 1 27.911760083146646 46.59359429197369 3.9018277581322
182 60 0 6.567428547112914 20.666040417849995 35.40807080471882
183 61 0 28.001068078241786 26.23727811551976 42.408964740687786
184 61 1 15.0134702946003 16.845267466955793 35.755337269979265
185 61 0 14.307879955617132 18.770977548538333 32.69129276757505
186 62 0 12.48431445528351 47.692605232782846 40.37672834076041
187 62 1 8.786156157986113 48.235202716032134 42.1532167582617
188 62 0 11.67052938949661 46.10351436766096 39.4705736186304
189 63 0 45.19007144291408 11.068202248648584 16.75896383244452
190 63 1 44.72003107340458 5.92126998673191 10.953123076260281
191 63 0 40.74012265382098 12.119435533955148 11.224617139114203
192 64 0 17.130832190979206 26.009411683673576 25.58972517621484
193 64 1 42.46377819885296 9.781502234240575 31.647202282989788
194 64 0 39.43506427241273 8.172434652399408 32.63103463162505
195 65 0 6.135237214384494 36.43548532899596 29.960634270299757
196 65 1 5.288497180311752 42.614901013572634 34.83109966343033
197 65 0 7.7403166326548405 39.26867571355988 33.38720112793136
198 66 0 21.1170926577653 25.413166192091527 43.00546190555902
199 66 1 22.415911475515657 20.303824034694475 46.84120712832181
200 66 0 19.98804605672821 19.270577735019476 44.7542037997193
201 67 0 13.927454072497516 13.091122576851589 19.90473763482931
202 67 1 17.667568123689083 2.1310185038984235 9.44567417107927
203 67 0 16.656489805674113 11.908478239585982 18.60553949685988
204 68 0 23.48920906398585 25.628615646830397 26.894148850820805
205 68 1 18.8078820319898 29.4147871912604 30.878659651779493
206 68 0 18.69328831680045 33.20429043761237 28.836350471037683
207 69 0 45.47358762518923 40.78735099703738 37.897156079276044
208 69 1 47.433678619036726 42.611802830495336 36.861798675719704
209 69 0 21.934590204629977 47.144736562697645 34.052514406372595
210 70 0 21.340650690336957 33.456940113235056 44.20318444803465
211 70 1 24.19273931106041 36.101795270221515 46.324127122560434
212 70 0 21.415010259476215 31.31491738029389 43.74306334872596
213 71 0 45.64854462799482 25.03945585276439 24.874276525713714
214 71 1 46.827562453414195 21.758660703327998 20.694165440023557
215 71 0 40.63992079419152 23.560319882590353 22.38678535329231
216 72 0 32.54087790154524 10.238164478144173 12.503595495016604
217 72 1 30.365479118113193 11.307651066345473 9.929291884334932
218 72 0 32.5281598460057 9.83390661685075 12.219938212603617
219 73 0 17.8906178454776 38.185674018425296 14.87523550797242
220 73 1 20.08484276842621 40.82334647387639 8.61300884174483
221 73 0 19.12126519452138 37.40470739596803 10.24439670539309
222 74 0 24.704546888569418 30.384086407443306 11.604650838826496
223 74 1 23.030565329062178 32.64906010757909 7.215786571120715
224 74 0 24.1568160281666 28.165679518451835 12.33716695904289
225 75 0 12.159075322564314 10.50342013884789 12.24449137463926
226 75 1 7.33441065793296 20.008847804944523 21.27725681551554
227 75 0 8.56881613573336 16.76020599155916 23.973045214318194
228 76 0 27.95204699408128 35.377868534904515 17.98279697854097
229 76 1 35.854147244589065 10.336247892910176 35.85648471774426
230 76 0 34.19355075845591 30.737836995064715 16.525003431404876
231 77 0 12.777044388401254 6.857831717282076 23.83774097056381
232 77 1 11.596995055245552 2.9994632458031125 24.837733157640113
233 77 0 16.47588887725355 5.318095621692982 22.676720277610233
234 78 0 5.477124184858725 10.700256306654866 5.910506238425822
235 78 1 5.998787390833967 12.680299759827276 4.603820880436429
236 78 0 5.466863641757003 17.897251259707943 5.072409330004361
237 79 0 12.415129609217459 16.11135819232033 22.41296180861041
238 79 1 9.529711849349876 11.710422397656817 22.524719231664044
239 79 0 12.28729154041727 12.441421959306982 25.407741802184894
240 80 0 43.03185192374865 25.85230788482959 35.30576551210075
241 80 1 43.94972809701568 22.32993778054079 41.590019081762804
242 80 0 42.42102502437729 26.662419508130277 41.37984047966597
243 81 0 18.61164237110995 16.022247610950355 23.464704707811723
244 81 1 18.654033940949425 13.885568702542212 24.755608933624142
245 81 0 15.028695425072225 18.568482103335477 25.455649805008328
246 82 0 39.13703306961856 1.9417026192125564 8.588140937247221
247 82 1 44.609892623902574 0.9926479819318015 9.886101793895017
248 82 0 22.398962123280892 6.07027573177325 6.375174998883935
249 83 0 19.27643904251784 30.902445187922268 41.11742868922512
250 83 1 16.148021840689644 27.193033897309206 43.241381159002636
251 83 0 43.5754851037505 41.6060686508976 11.860959190248742
252 84 0 16.644087296761757 33.52331852781161 21.45825606855973
253 84 1 16.33887572551945 39.63754710687173 23.425335853058936
254 84 0 17.29650300974057 36.21931391559681 26.964515610733926
255 85 0 46.9197375971866 40.967532864851464 29.65464096784433
256 85 1 44.99981718847871 38.098870152606715 31.731300798076155
257 85 0 41.049554547029224 34.172082836507265 28.284844888178725
258 86 0 28.517705998310078 33.453707452138936 38.233398361499084
259 86 1 24.887041870009796 36.91921317154434 41.27132746456251
260 86 0 21.5467408816894 34.42437383133186 41.60918205313775
261 87 0 20.29043305209426 4.793103855818368 18.157504769274478
262 87 1 15.964776950905234 5.0017798896675645 20.172034179155737
263 87 0 13.916592412921329 8.988501377453053 18.957795834104488
264 88 0 32.96660897844002 39.40231888625128 17.931268769178764
265 88 1 43.91908799814429 19.76700394949069 13.375697490868625
266 88 0 39.084077106913675 20.199195612880743 11.16798225826991
267 89 0 41.225095001129496 30.77352380828581 41.432252483898516
268 89 1 39.49333957066939 34.86377016567029 45.8689942696398
269 89 0 35.63608982254951 36.82951071082675 44.87741211589595
270 90 0 34.077014693645495 12.371639981909627 10.694198937716086
271 90 1 40.09234125050494 7.803060664572472 11.790169065473451
272 90 0 35.541064969263275 9.490254453073087 15.917253981395264
273 91 0 18.625196993562458 9.092001749448901 7.060271811645937
274 91 1 17.38309265636493 5.957334474313503 8.731150775173344
275 91 0 26.23053494697348 7.333095800913507 11.247726779639976
276 92 0 19.759481598508934 24.472121374341672 28.78896253361204
277 92 1 9.982182789010352 33.57654579200781 31.969774721374893
278 92 0 14.675591469839983 32.213672071422444 33.764116815818106
279 93 0 17.732038309392067 10.34053610829379 12.79360459285223
280 93 1 20.985037190620307 9.655433054815335 8.674302252521962
281 93 0 24.32880020499544 11.83601213525369 14.05389163271588
282 94 0 31.316333105586203 39.92051209386845 39.36339685663795
283 94 1 25.40000668840403 42.877822509204165 36.86886622913221
284 94 0 20.885635918781656 41.69891791944566 38.36974807300841
285 95 0 14.081834212134963 15.956547813042334 41.27262698691335
286 95 1 10.259967598525098 17.333073018095256 44.33620751131027
287 95 0 15.704404058075827 16.91184511906698 40.19753433103215
288 96 0 17.508713202720898 43.60754052682041 20.950449502253402
289 96 1 15.203508532499718 42.22901802124154 23.88135728800606
290 96 0 19.77505975023586 36.95626855936287 24.47863127074548
291 97 0 28.303794640954663 5.864012072378393 11.205809280787856
292 97 1 31.5627404215427 2.5228009836945504 5.478256593952334
293 97 0 31.696775091453066 9.24420255627997 9.885777669930262
294 98 0 19.784954928847306 38.777489160894355 37.10839814584245
295 98 1 17.282250555610155 38.782928733661166 36.24226465569974
296 98 0 15.285043308010367 39.6186727475853 33.581464238297976
297 99 0 36.63049771267079 15.646277552302022 42.16608716937598
298 99 1 44.288681840961516 7.5570431328970935 47.19274834137981
299 99 0 39.30248715732851 16.760424256929028 38.262707490759695
300 100 0 10.456160424217822 37.76062896265421 37.80738450851119
301 100 1 4.927992877448156 41.22852010913128 42.43829150829192
302 100 0 4.750431730647398 37.53777166816842 37.35871350381881
303 101 0 35.266236426547444 15.46995557849154 4.4265989976813
304 101 1 40.65934655476658 10.319545509549993 3.825585385643322
305 101 0 43.81090074626062 14.450716637846487 12.942058557290427
306 102 0 28.600676608386536 22.834895261523467 42.08293849943131
307 102 1 26.514552320399698 24.649144103466586 44.077672391837844
308 102 0 26.62637311101785 27.81545230597435 42.750613755914394
309 103 0 35.37614545592197 9.99500306827239 16.20882875649837
310 103 1 41.137509824837956 4.90668839612735 17.412140882283214
311 103 0 35.74236551140592 7.30118329793839 20.186738967870436
312 104 0 34.024231146487665 7.979873357270558 12.733629013012736
313 104 1 37.71864236689035 8.389858901439277 12.035322286180081
314 104 0 32.58891635919086 12.604575404109807 13.328417239805363
315 105 0 32.22515487571857 38.738660091232056 12.275292347718723
316 105 1 35.995459294218804 38.97173775108419 11.333965717903755
317 105 0 38.288182015951044 33.93192243288293 11.802795520781139
318 106 0 16.09364252391965 27.230186973576412 32.95912965289893
319 106 1 24.03959572391422 40.051407234852654 41.089474980430644
320 106 0 22.336874824315213 39.25682831373667 35.77363246643262
321 107 0 25.51839036103932 32.548694505531806 7.836212420373731
322 107 1 26.30800951248193 36.09144538307178 6.19787247606494
323 107 0 29.603281188352437 36.402393409406365 6.5531293624868585
324 108 0 18.280083227203058 25.38000747243013 22.06884387586613
325 108 1 13.571415243746229 24.59786980932108 16.83101548446908
326 108 0 12.981684557189892 26.120698718496723 21.704596022225513
327 109 0 44.26762852115516 27.034388861599076 39.635598950310715
328 109 1 44.905715689138326 24.89102594747704 42.031396850359116
329 109 0 41.33986173950561 24.04539474158347 38.75153083925623
330 110 0 19.15675031086704 32.40147456472214 4.869701788589067
331 110 1 22.86928482558016 35.76598065645435 3.5959146974047123
332 110 0 23.687683622313237 38.176406157941216 5.100874746420999
