ITEM: TIMESTEP
63
ITEM: NUMBER OF ATOMS
333
ITEM: BOX BOUNDS pp pp pp
0 50.0
0 50.0
0 50.0
ITEM: ATOMS id mol type x y z
0 0 0 27.12885238746443 25.09247314560759 32.28246688943421
1 0 1 26.987424974371844 23.009049776143144 32.97511814998979
2 0 0 26.23685141665474 26.039198374479184 35.22444230357976
3 1 0 25.80636842284506 43.506614455845266 9.300537746024437
4 1 1 26.762774743001184 43.7068565686002 6.545625083116096
5 1 0 23.952316038157424 38.258597087998226 10.874536843798476
6 2 0 41.48607579810714 25.283957875200084 35.78698272333654
7 2 1 38.473847043686305 24.32821386178377 37.57202049629425
8 2 0 34.03180234601977 25.250133275316742 33.59152432197728
9 3 0 24.69841822453323 9.674846253963354 32.675886478846266
10 3 1 29.073535659119255 2.5548454565058645 40.152604522234626
11 3 0 25.48782860691948 10.72689825181525 36.1057451111881
12 4 0 33.46241376442948 19.912820235819698 26.97199323584913
13 4 1 33.9594678816499 17.88627251981329 23.63716589303387
14 4 0 34.143946925236186 15.342001509073944 24.972992150182932
15 5 0 22.72516682842771 22.522677268619663 35.08381730235129
16 5 1 23.28104379339005 27.379191944062363 46.10812815282639
17 5 0 21.084756416204744 27.867253396545586 34.92862882328086
18 6 0 37.93076326121811 16.484593291439104 11.025192618986582
19 6 1 45.77321560502596 38.6126860980283 9.32983952149996
20 6 0 39.93371762007364 34.394013318180654 12.40648218541262
21 7 0 33.67101509384234 7.231382341319326 37.04298356544412
22 7 1 37.57680026771129 7.278752016624976 39.830052357458456
23 7 0 33.60961654812647 12.642988431764653 37.90049914004644
24 8 0 3.7696131550817285 19.08822375527159 17.543636472929492
25 8 1 3.5392693647504228 15.13795752797531 9.476306721383336
26 8 0 5.40744728544025 13.247275854220055 9.768215081731066
27 9 0 18.79871137724056 6.091639406906812 21.374155902868544
28 9 1 16.27465830066936 5.046411058296119 17.429222669258326
29 9 0 16.46410520917117 9.693990183276568 22.79098339158774
30 10 0 41.35328955607271 16.321204077584962 33.01588180169847
31 10 1 33.78122613702526 15.695121146342172 10.2570697370052
32 10 0 28.29157204953467 19.570142150407886 10.710465749086708
33 11 0 29.907591524949275 44.935961692288544 13.160524526829729
34 11 1 34.57769472941745 46.51394329535267 13.27295455101884
35 11 0 34.04805801371584 44.08447461445378 15.588368511250627
36 12 0 37.61397646100629 39.440001653876486 12.321055820620275
37 12 1 41.9109134110978 38.03033522349611 10.880523354100436
38 12 0 41.99874394834689 35.374004960998604 15.450136593169713
39 13 0 34.74355050645822 28.624460198854724 44.70986571575486
40 13 1 35.72003553758728 25.80350505093024 46.33062692657378
41 13 0 35.21736197400178 24.851488171664045 43.81209541216108
42 14 0 11.608381301539298 27.321113155280802 23.924815970297356
43 14 1 13.479771395926232 29.37349400882418 22.334991671164843
44 14 0 12.509603949700743 27.109036239766372 23.237893485020166
45 15 0 21.37995169815262 21.525558694372684 38.28369158385182
46 15 1 30.974111472873073 21.82838960617529 43.86363397467024
47 15 0 29.120425691608915 21.80219978693605 44.351773485302644
48 16 0 43.66358744551315 35.87902772163301 40.50294349744878
49 16 1 43.78909772616261 36.067588435529835 45.66077256710922
50 16 0 39.07997899914526 37.03381354178211 41.13798338184653
51 17 0 42.88736636252791 20.871365581376654 27.13114148186235
52 17 1 44.890720444122564 23.28334783506817 24.673000222882123
53 17 0 39.1733164048077 25.13444421481501 24.13478604013657
54 18 0 42.54846406008738 14.018107496718487 22.384737653040222
55 18 1 44.37843590036374 13.990102256800816 17.341610753054876
56 18 0 42.45226603317591 9.210972166213049 19.29730291650957
57 19 0 33.28945718473144 11.786796815358043 13.810620312586371
58 19 1 38.19220546986917 12.30914352121228 15.698252833675083
59 19 0 39.71646644896006 15.633341620926515 13.80720215750036
60 20 0 11.659491786295687 42.92819414961176 30.492218308222764
61 20 1 12.713075904311674 45.269288087037275 30.907636673501553
62 20 0 18.038911683201633 45.00652300666948 32.02525803685169
63 21 0 10.846857236054559 41.12064913928965 31.223368778386078
64 21 1 10.34587878835182 44.12751893000387 34.46154165828253
65 21 0 12.219078613769176 39.92750833988148 31.759503250737602
66 22 0 27.694682491836655 18.918250047061576 10.87316119169196
67 22 1 30.916317140119304 18.378823778368666 8.884589566123717
68 22 0 27.707752916409408 16.229946367075193 13.470513050922408
69 23 0 43.356083482858566 13.481086426494372 35.4731895586429
70 23 1 46.42120200500854 11.144135033842334 33.95882118841618
71 23 0 42.02908168279712 9.590259834009668 34.40509271306678
72 24 0 35.43205021704814 29.568939819763827 39.98409826433441
73 24 1 38.165054513300376 31.504636796017042 41.29688196279733
74 24 0 32.361940418740325 32.264129444375364 32.88062636747406
75 25 0 46.7167424031778 35.42010649438261 11.660718698555673
76 25 1 45.5446425901725 35.93551479064638 12.059597061784858
77 25 0 40.77245014029208 34.578770171485644 10.598441575094595
78 26 0 21.71092141869463 14.69134361824116 27.11172512366784
79 26 1 24.29910410777139 13.176283379636754 28.702694543749438
80 26 0 27.157789030612598 12.146311024132618 28.29369924774168
81 27 0 23.825248108040014 14.31885928873899 11.25848656686239
82 27 1 26.26046459592688 10.838101486240113 10.68805987153779
83 27 0 21.06336663152192 10.935000463774191 21.03485100324208
84 28 0 16.741974304980854 19.425713948601985 18.6869433673029
85 28 1 8.604588348104132 26.446842622587955 27.808622731448512
86 28 0 13.362450744224104 25.214878151226564 26.148158204514598
87 29 0 28.359204560880176 31.32321285711246 19.9456748291826
88 29 1 31.826559084808324 35.54645483639472 16.04803412233253
89 29 0 31.739315140209044 31.334269086879893 16.919042664319345
90 30 0 48.18797812680901 18.28214309217436 41.47667457659501
91 30 1 48.06864813213402 14.556633126743675 45.182746238753786
92 30 0 47.914191537232696 17.958362062059003 43.48555156393129
93 31 0 26.81301847657395 4.143846015196274 15.531536189618993
94 31 1 29.494393289946327 3.7924377740489943 17.627158675749328
95 31 0 28.47808413058957 10.479225809067541 19.4069624748845
96 32 0 11.03368708725835 38.34243380691525 11.132997242822185
97 32 1 8.62949916787229 39.19978172563551 9.695507804228587
98 32 0 10.849743205766956 35.345210361731404 8.939243605499168
99 33 0 43.743787258524996 39.52735538769872 23.350642668922774
100 33 1 43.48910579710828 37.6058832397737 19.678161676956908
101 33 0 39.441155400081534 32.85731334406543 24.51021085541029
102 34 0 1.768460544863919 31.00234202943315 13.382209449376319
103 34 1 1.0371189603156723 35.08818707154853 10.063845214005815
104 34 0 1.380633445001798 31.20337970268391 13.036082980482373
105 35 0 33.40983940866761 24.467016826404862 36.650233639836465
106 35 1 35.997315930270666 23.531741052787925 41.42204238251631
107 35 0 32.746514980262035 21.91432709195501 35.03108711418311
108 36 0 34.00773593580312 41.858057638109145 43.437483613612144
109 36 1 37.20749911389176 46.734912943515 46.296154458661455
110 36 0 33.56578097316576 44.258994535514354 39.24105542666797
111 37 0 22.40859002776958 27.078949136058903 33.824632898925564
112 37 1 14.80270242284183 20.212497329047896 29.337729455039153
113 37 0 14.133837673820146 19.521959130357796 26.031334751765584
114 38 0 10.762979649999476 35.342800174092815 29.875284701566876
115 38 1 10.668942184128571 29.497584731672973 19.421045908100176
116 38 0 9.117512871430762 35.53054051467759 20.584702145536397
117 39 0 21.7763247495971 31.182108409888688 16.92728839614269
118 39 1 25.570952157629126 32.54090591272889 15.36009416936935
119 39 0 36.12892738927821 28.49921263811628 9.496033568804226
120 40 0 20.388899456072835 43.58542511347528 24.529138104455267
121 40 1 22.866325101973125 42.965813445785756 24.22686760774801
122 40 0 24.843903051275877 39.74540250944869 27.116659760599934
123 41 0 37.14615355001701 23.875917048214454 9.831482750185947
124 41 1 39.49360088594203 10.431887556263629 2.173107290495321
125 41 0 33.714039123976285 24.1863115964498 13.85808815784757
126 42 0 23.362270469047953 44.452338856352036 31.96590593877331
127 42 1 23.645575416134946 47.147656692224935 30.111872778714407
128 42 0 26.369835201518782 47.0461784223491 31.64754196116044
129 43 0 9.4858511996532 21.385795154721844 20.917233761173076
130 43 1 5.888577834325942 20.601091353760356 15.765608112920766
131 43 0 10.434804748892912 18.071387382257324 19.64731865788105
132 44 0 10.62405057501198 20.577601015464243 38.30605819732811
133 44 1 9.473654507685973 21.275952164715925 44.063991497872884
134 44 0 8.736641200401602 25.106737879929334 44.396916132937655
135 45 0 28.90830363734612 5.5257944646466 3.1634352230355156
136 45 1 30.080855267289326 3.807352958561279 1.5139462924151428
137 45 0 29.443979817176036 8.236757431871068 1.6962951185288686
138 46 0 4.102972628763179 8.652873947953527 26.021242533174824
139 46 1 3.2305066753698153 8.695431206994675 29.547319079886925
140 46 0 5.0906405611129255 19.252710617056433 32.98851590231483
141 47 0 35.94140845680749 13.556611149278243 39.305570840321295
142 47 1 44.799123415232565 5.996798773957453 38.6017962076161
143 47 0 41.12167998900779 6.301095153113496 37.788049295367564
144 48 0 5.43828907592508 19.941569615058 7.0739161776002115
145 48 1 4.021426326602053 17.579610103049628 3.723114849127356
146 48 0 8.707709520338197 18.014656801163706 5.832176978202109
147 49 0 18.405151176726314 23.700086336192744 34.88865716722267
148 49 1 15.088869121282135 20.43773023394625 39.32504533659356
149 49 0 19.39147998435734 23.927510802098503 40.422801453920556
150 50 0 8.895943440064771 47.171465417972 12.639410919787961
151 50 1 7.82671845943341 46.05499221750786 13.122922575469902
152 50 0 13.541976264127559 42.805652071007074 16.757466524366627
153 51 0 22.86316742196749 32.52099733787273 13.298310655730042
154 51 1 19.301630388833846 35.434462827246584 12.412218806651216
155 51 0 17.300512302793276 33.536568985954595 12.812760835178278
156 52 0 46.14919204454038 28.135104930786802 39.664352769818315
157 52 1 46.870924360978826 30.99782080930621 42.089101792103705
158 52 0 46.95231837568553 32.52362487676105 40.83960689265547
159 53 0 11.87537838878869 20.44482238180004 10.959715889415847
160 53 1 6.5938316154080105 15.98127774886108 9.445736130917432
161 53 0 8.27574283648434 14.271584481907482 12.35699282711413
162 54 0 16.565731553188556 33.06705601122978 33.036746611072914
163 54 1 15.691045692185252 31.809240168218288 30.21407678882663
164 54 0 20.221985403731665 29.3768242850048 29.68548465556646
165 55 0 12.08805478228242 25.70565796352945 17.77370677720105
166 55 1 11.093007770856415 27.47555487098631 17.72587999737663
167 55 0 12.722120146861787 26.67098853868009 20.46090247274576
168 56 0 7.287438069113339 18.36930917884193 25.747649209725648
169 56 1 5.813491984705759 14.02731781748753 23.160000710542576
170 56 0 5.58087988317033 14.275788120169628 25.40314774561308
171 57 0 16.031559428646393 18.872125715290508 33.89241903122358
172 57 1 13.958165458861465 13.759410661308602 34.489781186149926
173 57 0 17.281235471736725 18.151482996146836 30.776632136173102
174 58 0 14.75561934280518 28.17333299238114 37.20085597968548
175 58 1 13.677950776580351 29.10415829833418 47.28958519163159
176 58 0 15.164794179990782 26.008434600754263 37.28686129076539
177 59 0 32.14088139515027 30.80522088482274 34.44339006117986
178 59 1 12.982414232151871 9.366805702184893 29.383018128337515
179 59 0 15.322873931931621 11.875445843112855 31.80222052212698
180 60 0 24.271024368518933 44.953516404422516 7.0098654964987945
181 60 1 27.64645415686643 46.300376459222036 4.2697812290235735
182 60 0 10.216726023245608 25.101467866565397 30.01931084845869
183 61 0 25.85632118539384 24.68796494440558 41.30831705696737
184 61 1 15.141283164498532 16.95730581976411 35.79905924923543
185 61 0 14.407667664102082 18.527725912379196 33.09235509061643
186 62 0 11.991909757030802 47.76750448844755 40.615279701760386
187 62 1 8.841680203371288 48.212422486884144 42.11543477909515
188 62 0 11.274552354507502 46.39310880520256 39.83654054307811
189 63 0 45.1156812024344 10.284306682302354 15.870576250925563
190 63 1 44.68689922954644 6.028891472667554 11.011001903394027
191 63 0 41.34473920311018 11.181432456687231 11.186932981788248
192 64 0 21.41773559130081 23.260875383360325 26.615944917557794
193 64 1 42.1728102237204 9.939983152861142 31.59105129655127
194 64 0 39.803571710622016 8.385252463244196 32.503128137472096
195 65 0 6.00588198950545 37.38201628773399 30.706872898703146
196 65 1 5.317255389544281 42.52745090014533 34.77222183980523
197 65 0 7.409460936352039 39.72132559149904 33.58300386106856
198 66 0 21.309667539045336 24.651657552805332 43.576080384081436
199 66 1 22.384994922570115 20.343322783135832 46.78934353230727
200 66 0 20.29011861145469 19.40007338378473 45.01341520220912
201 67 0 14.53947536733495 11.302328071454852 18.19760087485763
202 67 1 17.6192361374827 2.341332811906694 9.644671051854866
203 67 0 16.817791620275194 10.332004306062561 17.128770111768297
204 68 0 22.779774699637226 26.204730761820514 27.496631819861438
205 68 1 18.85110927577059 29.411093298200928 30.82379420933245
206 68 0 18.711736041998897 32.68712725869979 29.111381258628487
207 69 0 45.68708504871247 40.99647188085501 37.77839541704598
208 69 1 47.1521465034702 42.646489396831015 36.83962849564524
209 69 0 26.22561123159253 46.38064178331813 34.526009396228716
210 70 0 21.72590264797046 33.818495037365224 44.49067832993327
211 70 1 24.14311551755316 36.035351479085364 46.28247014524618
212 70 0 21.82372728962328 32.016442907830296 44.122185809737005
213 71 0 45.81234292143638 24.563770732210124 24.275343071863627
214 71 1 46.75938288375015 21.804773726868152 20.747323114910756
215 71 0 41.56385031468902 23.29262222009664 22.135781823724365
216 72 0 32.26488858169402 10.379662364636474 12.18080357679135
217 72 1 30.399734695966927 11.287596809497604 9.967709842996461
218 72 0 32.25620328189921 10.013279921012703 11.927998178251421
219 73 0 18.221809571180305 38.583462997658025 13.929851247565942
220 73 1 20.05626302984488 40.77061027377892 8.685472891236435
221 73 0 19.24732693157849 37.85075442630305 10.030338332941493
222 74 0 24.4685734425833 30.70598635208349 10.98405285867365
223 74 1 23.055881529056606 32.58697198460319 7.30256549768693
224 74 0 23.98761382814194 28.83700959663883 11.569390714332874
225 75 0 11.374696076842273 12.048227456296187 13.71641889006433
226 75 1 7.393773569835072 19.884961885021305 21.208586510153154
227 75 0 8.403365974871011 17.197575207851436 23.59988127826934
228 76 0 29.28958548662765 31.152973420785315 20.994032260078804
229 76 1 35.7534819003243 10.814073964557023 35.46539354406194
230 76 0 34.46663898596795 27.3175476297569 19.771190303442406
231 77 0 12.618848383112079 6.34268969611963 23.97149428090263
232 77 1 11.651262831090113 3.052736601834946 24.8097186868263
233 77 0 15.765787852865069 4.980848180187593 22.991264584702098
234 78 0 5.530675732857299 10.915256748621752 5.774965507458309
235 78 1 5.990729655495378 12.713520943855784 4.616383666273758
236 78 0 5.541912266457465 17.150623883938906 5.006563057761301
237 79 0 12.004002518336463 15.483758629409005 22.429343501243853
238 79 1 9.578309222188818 11.755705687498626 22.547631356299735
239 79 0 11.921008102881236 12.344396192343106 25.024733374916973
240 80 0 43.17029339840253 25.320534194748053 36.257960270749095
241 80 1 43.92823925492127 22.401241544758797 41.52896701919632
242 80 0 42.63137263566202 26.066597435750293 41.40683525116104
243 81 0 18.620485488530047 15.79325610235151 23.598756814065
244 81 1 18.620310977345216 13.942757372697441 24.753615472907097
245 81 0 15.559411062283845 17.88245660676582 25.353472890620623
246 82 0 39.91174557399173 1.8066033549764033 8.770792886422925
247 82 1 44.32924140059424 1.0541837766393967 9.837986528373314
248 82 0 26.114671536295326 5.2207012144885265 6.962341844047265
249 83 0 19.188545723280047 30.105151395886477 40.816590863879604
250 83 1 19.838332394679245 24.95594908287569 37.28528365225978
251 83 0 39.3012490499155 38.86092022785649 16.54390461334606
252 84 0 16.59917402316149 34.42999649851995 21.752055275443638
253 84 1 16.349942325105463 39.55130799780932 23.438282980257664
254 84 0 17.161566534494195 36.69898166818484 26.464655418644117
255 85 0 46.66127821956989 40.58273189188143 29.928815964581375
256 85 1 44.979064639697405 38.086192493069774 31.682123593261096
257 85 0 41.640051276366364 34.75971930584068 28.79749552741255
258 86 0 27.985080647538144 33.95883384986437 38.67765172714492
259 86 1 24.892069469603364 36.866820745782476 41.246501405202295
260 86 0 21.998658078492596 34.75849473170863 41.56199428892126
261 87 0 19.685054192668673 4.824705794184944 18.438069696027707
262 87 1 15.984766052917644 5.034362314039268 20.1433746732826
263 87 0 14.203268872259446 8.435565157128526 19.124883203068777
264 88 0 34.796987945711564 36.114680824854005 17.16677110546368
265 88 1 43.761999262343004 19.97548700127836 13.403569239412846
266 88 0 39.767131985282624 20.15113012228443 11.486526473689938
267 89 0 40.966183607664235 31.38038985245749 42.08846920554331
268 89 1 39.47640310295929 34.84284750665374 45.819675167391416
269 89 0 36.16586744650104 36.55738838260991 45.01035224929444
270 90 0 34.9922628283633 11.675404976825378 10.8637479010323
271 90 1 39.98915715155124 7.863181234869082 11.81842032167304
272 90 0 36.20663073040741 9.261234256645823 15.32773623631328
273 91 0 18.46738696082045 8.685761632727523 7.278036155949593
274 91 1 17.479552806287966 5.996100801195739 8.742238393136377
275 91 0 24.844874596127767 7.119219812357544 10.852487962667857
276 92 0 18.17367084941911 25.950750499361483 29.307028844064195
277 92 1 10.122557820479555 33.472342264790804 31.95338918108876
278 92 0 14.015351296891957 32.40226688024145 33.50826017018647
279 93 0 18.198433525721853 10.2436936146266 12.207611198850453
280 93 1 20.987265683572872 9.681859383495732 8.761099314596878
281 93 0 23.826789588395776 11.510107294352622 13.251140758166047
282 94 0 30.419395001108263 40.36629564692677 38.98774933098862
283 94 1 25.416120013387143 42.839748975662495 36.90540679013776
284 94 0 21.524788866890123 41.86236598578718 38.16068277416647
285 95 0 13.54361023828639 16.14789808604059 41.70369873965237
286 95 1 10.344534919216073 17.317088409664233 44.27054475271501
287 95 0 14.88959244298558 16.975994656034946 40.817097876888454
288 96 0 17.205405697982624 43.42244430048009 21.3390431973633
289 96 1 15.265643001669535 42.190442707986776 23.862728834045278
290 96 0 19.086983170211987 37.752046243605776 24.38698737111697
291 97 0 28.798345702517963 5.3604360838892 10.338986527274137
292 97 1 31.53322869188628 2.6187037596447693 5.574578566165444
293 97 0 31.67448971056195 8.213241376934493 9.211602842761382
294 98 0 19.505940661695444 38.780158437884154 37.0069495204418
295 98 1 17.28377450643763 38.78928854369507 36.22771762843141
296 98 0 15.539667847871533 39.514244179776625 33.915665997263154
297 99 0 37.858581048832896 14.351931755549877 42.96806124796155
298 99 1 44.16166081078406 7.730998158530123 47.052200036801324
299 99 0 40.10673868988995 15.271484655617753 39.70951426257834
300 100 0 9.606838240536394 38.29141307184285 38.516097135596965
301 100 1 4.979273147929251 41.16138117411341 42.34724820915938
302 100 0 4.779263878795846 38.08120177832587 38.10670529753688
303 101 0 36.08915395861971 14.688526980218954 4.340536493238479
304 101 1 40.62810314544328 10.408255888724954 3.9028921696969685
305 101 0 43.30572920180781 13.79853695030436 11.493757788711381
306 102 0 28.33871747390682 23.063986285958265 42.33291487337666
307 102 1 26.5317542199933 24.65979449881859 44.0516489795285
308 102 0 26.613110220830897 27.415932575963975 42.91697582212896
309 103 0 36.260285499011665 9.199459833256444 16.371435886176705
310 103 1 41.03269802036662 4.977189084037098 17.42618252886123
311 103 0 36.541727421634185 6.9474600639804205 19.773903272847438
312 104 0 34.50235013034264 8.03183427919784 12.643207660411873
313 104 1 37.64474268687425 8.425068489572945 12.052681100710144
314 104 0 33.35527936809758 11.967698788783949 13.14248641736397
315 105 0 32.72321722283241 38.76632815766051 12.151587258863401
316 105 1 35.98534998549862 38.92456852282903 11.346061312535634
317 105 0 37.95442186108993 34.6604465488136 11.735596372737643
318 106 0 17.403133508697938 29.344522453019437 34.29645442900939
319 106 1 23.942714677434346 39.912524880795864 40.95826049908808
320 106 0 22.577741173507444 39.36361180278303 36.535875109543255
321 107 0 25.62461146609705 33.01878027620863 7.619049360458423
322 107 1 26.327033698174983 36.06457936030377 6.214171460837924
323 107 0 29.192978999769338 36.36224165863513 6.509608697854892
324 108 0 17.56935708607381 25.26261584705343 21.280512018014466
325 108 1 13.61049871760655 24.61868358311282 16.923338367123545
326 108 0 13.066592231535592 25.90539755657848 21.015927256306494
327 109 0 44.347329177049744 26.771924034292056 39.93068017262933
328 109 1 44.86914522530012 24.899197586795747 41.9840242122755
329 109 0 41.84037159498018 24.163811515793146 39.21207752783572
330 110 0 19.685481527403233 32.881955275901525 4.689689617049008
331 110 1 22.842477666135576 35.75390394485214 3.6181558955252355
332 110 0 23.58769291203564 37.88921878811227 4.924797794403136
