ITEM: TIMESTEP
67
ITEM: NUMBER OF ATOMS
66
ITEM: BOX BOUNDS pp pp pp
0 50.0
0 50.0
0 50.0
ITEM: ATOMS id mol type x y z
0 0 0 27.101283201975473 24.518736525815655 32.44101935868831
1 0 1 26.975653714909054 23.11443698401376 33.01224854352285
2 0 0 26.51391879708443 24.921713152144854 34.40087654952506
3 1 0 26.109571771149547 43.57496292868838 8.430884941288616
4 1 1 26.668972434952035 43.55693793312729 6.71523661140942
5 1 0 25.151868958425627 40.58794355910797 9.030280496145956
6 2 0 38.471414256382424 26.3192693865596 39.17742542971368
7 2 1 38.12366939749454 24.585230288070314 37.865812707917236
8 2 0 35.707692428433 24.999548137762165 35.486771633127184
9 3 0 18.702643819495005 32.66613138893553 25.41871740113151
10 3 1 16.062583243275334 34.989434352061224 24.055823109996396
11 3 0 16.751679080384758 32.48860252857455 24.450311102208797
12 4 0 33.647145397488906 19.152825629056768 25.737308469445836
13 4 1 33.9509310109284 17.88283848499233 23.741902871457604
14 4 0 34.080523027247295 16.18563031650717 24.543685073341607
15 5 0 18.430983737394776 18.372949318125862 24.584998069692823
16 5 1 17.006594485996807 19.416106186704205 26.155364955856292
17 5 0 17.268245999745346 21.87520076336158 24.634541634633546
18 6 0 12.202734663418275 20.467772922906843 15.965032065509126
19 6 1 12.308513260643647 21.621786373074524 14.323423726370583
20 6 0 11.88594179226941 20.216605525097663 15.872705155491873
21 7 0 35.177413283948205 7.271129609696937 38.121735391635575
22 7 1 37.3790649452533 7.418002489826542 39.7124421510799
23 7 0 35.267768634494885 10.376725697408148 38.70254288052113
24 8 0 8.130526519669242 15.765265337845417 10.139689426936267
25 8 1 5.067149367043946 14.581767398136973 8.131621362509241
26 8 0 5.7913245023522615 13.350260559696185 8.774764159431433
27 9 0 26.21424420307432 12.160402728446579 28.29781448499938
28 9 1 26.720627733820546 13.577142443551736 27.640402213273685
29 9 0 24.947076237571764 14.918562916653357 29.141605093949032
30 10 0 32.86202605583529 16.498862025091444 10.092262423779383
31 10 1 34.454464265186814 14.744772818394019 10.704188461074581
32 10 0 34.18162316544008 13.486220860626942 13.22990589917705
33 11 0 31.75015887055174 45.552209033006825 13.2114450370179
34 11 1 34.45150118487163 46.42253887963807 13.320359004160995
35 11 0 34.22443849161597 44.931478778935194 14.77802834418727
36 12 0 24.607711762093494 47.82755301791166 36.13121647900574
37 12 1 25.420544449337765 47.84300186228904 37.97589695616554
38 12 0 24.42324989803418 44.778491651766394 35.49567992462675
39 13 0 35.08661849565776 27.632752917311212 45.27927097311308
40 13 1 35.688103284603976 25.847003792173673 46.24501395764035
41 13 0 35.3712846530462 25.15497585533239 44.61350029225083
42 14 0 12.225664841578634 28.04356216171108 23.395263600075527
43 14 1 13.419131627463985 29.287855507230553 22.38515327774209
44 14 0 12.836644543027969 27.776159294395352 22.93774352043104
45 15 0 31.61351769818896 22.768087609069724 42.79372613089595
46 15 1 31.741873798123372 21.939108202530633 44.2076666294011
47 15 0 30.119961259961812 21.84981001870179 44.377061932759176
48 16 0 43.882839090289416 37.74249528806759 42.857354134415594
49 16 1 43.72246001624536 36.68579189207078 45.53026164722284
50 16 0 41.09355100334543 37.07023134246365 43.0931531542155
51 17 0 24.627384220712738 37.20429575719878 42.73979479371514
52 17 1 23.632381858440574 40.05853887707462 43.05951432251922
53 17 0 22.190906641002673 39.63629860102732 40.90425531176016
54 18 0 37.406793136965945 7.039951511616466 17.69004489428285
55 18 1 40.70567322533979 3.5997723727128417 18.630395196137737
56 18 0 40.58050848173852 3.795085671322519 19.937003479705343
57 19 0 35.26991296705434 12.0117719652848 14.565296028699498
58 19 1 38.10593584939883 12.373350249735608 15.607649192390328
59 19 0 39.11483134501368 14.375139672850413 14.511395083984494
60 20 0 11.813046141204698 43.55098224777934 30.599409366044085
61 20 1 12.475627089734255 45.045311818706544 30.904383177062858
62 20 0 13.908488348005001 43.66598400868358 31.46915847375423
63 21 0 10.73273566621275 42.202223459501624 32.519589018133246
64 21 1 10.42940190233131 43.935783657523174 34.34390442787204
65 21 0 11.496857011151418 41.58348678914835 32.85614382893647
