ITEM: TIMESTEP
69
ITEM: NUMBER OF ATOMS
333
ITEM: BOX BOUNDS pp pp pp
0 50.0
0 50.0
0 50.0
ITEM: ATOMS id mol type x y z
0 0 0 27.114641194284047 24.839860611186054 32.35644881645823
1 0 1 26.980816334395325 23.055361338484758 32.992935958661405
2 0 0 26.356809093462104 25.55082206841425 34.86536822708804
3 1 0 25.942574290204686 43.538921168400904 8.911137964244384
4 1 1 26.72148300828958 43.641274164893765 6.620429525639985
5 1 0 24.47697494537537 39.27603118237153 10.066690101112558
6 2 0 41.00685240443634 25.133892250125026 36.06533428806105
7 2 1 38.45357221699408 24.347932446659485 37.50984845962688
8 2 0 34.835494767936204 25.084730660925302 34.30774086231432
9 3 0 25.551311853760904 8.289117664382522 34.13542330102031
10 3 1 28.97724942219507 2.739572861408245 40.01302268098513
11 3 0 26.175511616546434 9.15698508405129 36.879519265383195
12 4 0 33.5430461523168 19.583402728755104 26.431977905357147
13 4 1 33.95608403964629 17.8840975675654 23.68280291026024
14 4 0 34.117454707913716 15.70621949160591 24.78281646461313
15 5 0 22.83226414623034 23.480672702567063 37.24448481501891
16 5 1 23.247460745693303 27.325650491454265 45.83683472653498
17 5 0 21.514887667537305 27.76605965034343 37.108734534525055
18 6 0 39.53645831781842 21.03034033193704 10.680317261213235
19 6 1 45.60503029234533 38.28077077536207 9.387299600765848
20 6 0 41.01925213374722 35.15909290479608 11.831720715196827
21 7 0 34.336047502005336 7.24215882757962 37.51798837408425
22 7 1 37.48964242467818 7.33994682291477 39.77822855579133
23 7 0 34.339090749245045 11.653073798895589 38.25472899044864
24 8 0 3.727019610599365 18.330118316820727 15.998884204250672
25 8 1 3.5580991797978285 15.16889898845617 9.575006592125966
26 8 0 5.150144656880704 13.510652407655403 9.733829645839524
27 9 0 18.36903323415499 5.914807426774946 20.70390781405084
28 9 1 16.303441482404338 5.111157972377465 17.534656631671396
29 9 0 16.430291123873396 8.834571359426375 21.800997520446348
30 10 0 39.78771718543874 16.19712646004036 28.331377292430656
31 10 1 33.8153742326866 15.747384420755568 10.553330495813457
32 10 0 29.310655883621333 18.85774800524423 10.654951791040164
33 11 0 30.712752432298455 45.20741562261973 13.180531517489504
34 11 1 34.52230389150975 46.47372292577111 13.293868427170253
35 11 0 34.12915032547079 44.45655892738514 15.2337439210349
36 12 0 38.348509035153214 39.19699097966867 12.078050445467651
37 12 1 41.86613510300515 38.01633757409226 10.945737172095788
38 12 0 41.98005701366973 35.84104455533924 14.649647272465433
39 13 0 34.89368360016914 28.191742631939277 44.95975959066206
40 13 1 35.70625221812576 25.82241447820926 46.29310445896117
41 13 0 35.28776142377636 24.981715247806562 44.16269244849481
42 14 0 11.882874179356097 27.634621379284287 23.690810390105554
43 14 1 13.45386241300683 29.33527218894576 22.357675239255833
44 14 0 12.649913925186679 27.407129319840006 23.109246572320487
45 15 0 23.258176028779655 21.584844193806315 39.37634618816027
46 15 1 30.844715335437392 21.824488751052304 43.79757497886976
47 15 0 29.31259822342799 21.8052144183779 44.316087610669896
48 16 0 43.68324215650739 35.91224043668151 41.397211643015
49 16 1 43.73406577944605 36.0765676592361 45.55337851807513
50 16 0 39.94104141894089 36.857017328000936 41.962022894052254
51 17 0 43.2097405797649 21.26431577538412 26.731443909220165
52 17 1 44.80678265570271 23.280295721900963 24.691483185363044
53 17 0 40.20233674397008 24.799250468114263 24.233443647930176
54 18 0 42.86884327548318 14.01011856477909 21.49967031610286
55 18 1 44.337205570916346 13.937793897907659 17.418332590678038
56 18 0 42.79160383323392 10.055898056465747 18.954842620964513
57 19 0 34.15121616710149 11.881696935913176 14.138316099525925
58 19 1 38.15429750168674 12.33744586226422 15.658304895975768
59 19 0 39.46139278754185 15.086039268996286 14.116619752431962
60 20 0 11.806992575659132 43.245141881810504 30.54949164804128
61 20 1 12.762716133300867 45.24670565731523 30.916405324281428
62 20 0 17.09729552097606 45.050972570683534 31.827496680479687
63 21 0 10.760826419316476 41.623447573616225 31.761352624008058
64 21 1 10.371638389181633 44.050213976609676 34.39829536039752
65 21 0 11.892913159291465 40.661555276064696 32.2336416467085
66 22 0 28.20656508203285 18.834436335201158 10.5556972442456
67 22 1 30.848333431321418 18.359985782145827 8.955863854634055
68 22 0 28.283758036580192 16.615531139480822 12.647422186615785
69 23 0 43.85850272784481 13.097868977368067 35.22490808993898
70 23 1 46.34319061388641 11.151567877740915 33.97906840503625
71 23 0 42.77495869008822 9.854585577201219 34.32951461709839
72 24 0 35.85415164309897 29.86902220861127 40.18555702785633
73 24 1 38.068334865976745 31.495208137891264 41.182142232482896
74 24 0 33.487177488813316 32.115203584928985 34.5144745877204
75 25 0 46.63607683556061 35.444865911136695 11.678620343784143
76 25 1 45.497570630513096 35.919188851613505 12.042584837228159
77 25 0 41.60647393468963 34.81491447443021 10.852953718395689
78 26 0 22.113231051067615 14.457441733157715 27.35365357512543
79 26 1 24.30044692639332 13.181262667483509 28.684111211138795
80 26 0 26.734018319310966 12.300541490840848 28.349118199768146
81 27 0 24.22474170685054 13.741862375864931 11.172360215665389
82 27 1 26.171769510467293 10.875141160772595 10.820557368604755
83 27 0 22.082813965476248 10.919352216465487 19.001070382972635
84 28 0 15.121212678412363 20.826916900089998 20.50729581514285
85 28 1 8.756986415565516 26.34623792965816 27.677275917622843
86 28 0 12.544800179742632 25.423343496106444 26.42935904500385
87 29 0 28.994951271937055 32.0959420896346 19.231338773078157
88 29 1 31.78593714915276 35.4547083214694 16.101654879707784
89 29 0 31.75351731888882 32.029482984493605 16.77546138217772
90 30 0 48.16767989398123 17.63034147550939 42.12136929795324
91 30 1 48.06845284074086 14.630951712499826 45.125312436640364
92 30 0 47.93762256673112 17.421069457212326 43.75979961134644
93 31 0 27.225691674193005 4.0938148821777505 15.855651703622506
94 31 1 29.456982820565532 3.8728482693279807 17.62757875941056
95 31 0 28.663976773464565 9.242683681413146 19.076130954714124
96 32 0 10.689631620686034 38.46855365552507 10.929614784606665
97 32 1 8.674414630125066 39.151350458037314 9.700310170338257
98 32 0 10.475154234547862 35.99398493966743 9.06578206317073
99 33 0 43.69893676504847 39.207713350467124 22.749819618213394
100 33 1 43.444258374704276 37.569875360720665 19.77238011366923
101 33 0 40.20356599253511 33.75308383522404 23.603554611377014
102 34 0 1.6444108095627248 31.716856778665896 12.80390618223356
103 34 1 1.04881236183253 35.00207714977514 10.131847253039629
104 34 0 1.3175828657087845 31.86662138924103 12.526353214009038
105 35 0 33.86370329192528 24.3032638514351 37.4872950997617
106 35 1 35.93125286263927 23.52319099902876 41.295620647746254
107 35 0 33.34960314543274 22.214802260652284 36.216795863074864
108 36 0 34.58770792890063 42.74418426929637 43.952943240610516
109 36 1 37.12831311851409 46.650473006632026 46.18058784318051
110 36 0 34.252784798247625 44.723909015830806 40.5746623346139
111 37 0 20.916933008350913 25.732214296856768 32.9415585530688
112 37 1 14.888878295672484 20.28946333999521 29.36055905505358
113 37 0 14.246675260356238 19.637262146560182 26.54910476740829
114 38 0 10.742787024410267 34.19672724957032 27.81519082222115
115 38 1 10.652745725431219 29.636533700755933 19.561719036148435
116 38 0 9.399127003445512 34.44154891727504 20.383800595376883
117 39 0 22.423880036198685 31.403582780090147 16.657846461734692
118 39 1 25.661587344742646 32.47707999469204 15.304156507507965
119 39 0 34.03121601222126 29.29893766973133 10.660500541524167
120 40 0 20.724015236776406 43.49845184795373 24.491882161176164
121 40 1 22.866683374336905 42.93677024198492 24.260082160484735
122 40 0 24.50308057964503 40.29706828151086 26.622471984227065
123 41 0 37.61428052987329 21.189876945301844 8.311168179132483
124 41 1 39.43328413444834 10.767157521414703 2.47443217286197
125 41 0 34.89025238524805 21.404744115303174 11.495482932473028
126 42 0 23.404150548329334 44.86036242844787 31.684697918428558
127 42 1 23.668187101613047 47.12114531965469 30.14372314629777
128 42 0 25.96617115611832 47.062353156642104 31.419148797811182
129 43 0 8.836203948258854 21.242474487465977 19.98561029049131
130 43 1 5.98079917320135 20.581248626797187 15.867838798977353
131 43 0 9.608960329054844 18.532249805176725 18.943157625332564
132 44 0 10.41674115693238 20.706494353272948 39.34063378773644
133 44 1 9.479083553897908 21.306726249770342 44.00301389299555
134 44 0 8.857001107691637 24.485746161237984 44.33797681828779
135 45 0 29.06490864408688 5.286965421061456 2.9450246669645166
136 45 1 30.06430199668875 3.8687760016802404 1.5296283881742092
137 45 0 29.55215560886874 7.4928730281829115 1.6635920221988572
138 46 0 3.966885286061704 8.669921538590078 26.581952951427564
139 46 1 3.2617604873930017 8.823791602281169 29.554682979914475
140 46 0 4.726658613033427 17.181891469207528 32.30998991623553
141 47 0 37.68077272592482 12.069950533182684 39.16653132882598
142 47 1 44.65442326998018 6.092593463142058 38.60248446227373
143 47 0 41.69753663851568 6.255020940928512 37.916087956597565
144 48 0 5.20313116287863 19.549569267240514 6.517794393071251
145 48 1 4.087058274529349 17.60881793837275 3.7807720080454845
146 48 0 7.892934208164452 17.939347829134853 5.465881891136501
147 49 0 17.804317955948086 23.108483958759802 35.69737954639553
148 49 1 15.174026562749457 20.51329885923646 39.28687620834943
149 49 0 18.629775743952642 23.310093089005253 40.22486995064273
150 50 0 8.799426297141872 47.076479055874664 12.679146284449418
151 50 1 7.899527520759102 46.022935597732726 13.162924670592899
152 50 0 12.473546400632012 43.41355527485382 16.07770179706237
153 51 0 22.254910422385386 33.016691883825004 13.14745167296728
154 51 1 19.321975122936554 35.38686434520812 12.42514288177357
155 51 0 17.583231969832745 33.80242330272713 12.756752047061795
156 52 0 46.265083351795674 28.595081436062223 40.05330549368305
157 52 1 46.86424383203205 30.979601953963826 42.05616019278729
158 52 0 46.94335146622322 32.35517471846767 40.97770721644869
159 53 0 10.898067675673687 19.616467648777903 10.681440863151686
160 53 1 6.671397533499807 16.0158141739914 9.49210490313744
161 53 0 8.010580312519101 14.547009136185645 11.893458950519564
162 54 0 16.436579980948757 32.87672377889807 32.61217296837138
163 54 1 15.760533150833188 31.79662453561189 30.229729138004686
164 54 0 20.54582612896384 20.16615452020031 21.023573567252253
165 55 0 11.973280673000025 25.902099177326726 17.758073355332176
166 55 1 11.115510070288822 27.456200090306957 17.753249833114005
167 55 0 12.474294864511446 26.796228467086795 20.048490113453223
168 56 0 7.029628187742295 17.609443995925872 25.29389335596197
169 56 1 5.828021512205993 14.077175642988504 23.205452129478765
170 56 0 5.606010742193356 14.23800496465354 25.12972431414801
171 57 0 15.666929513220825 17.972222327834345 33.99694775636071
172 57 1 14.01886474542734 13.865702955135834 34.440844481207755
173 57 0 16.674613686570815 17.350500962720627 31.45505772864495
174 58 0 14.548111979772202 28.35123714977648 39.146328146787766
175 58 1 13.708931749715816 29.055475530858434 47.046951307127834
176 58 0 14.87660034201331 26.609461146498518 39.223535961878014
177 59 0 28.17046609008036 26.362194234058787 33.39653773848107
178 59 1 13.253242392341875 9.668765670996766 29.4724516000803
179 59 0 14.960044514876046 11.48708616983847 31.418125294360518
180 60 0 24.810433194667922 45.15804930762136 6.580709429028238
181 60 1 27.385331968424875 46.010807172568626 4.632723034230649
182 60 0 13.855114650360196 29.52964509484527 24.64179025958585
183 61 0 23.712054456233474 23.142982696692524 40.20352517578906
184 61 1 15.267760656953387 17.068227296994344 35.84226487025803
185 61 0 14.528360810531705 18.298061743517508 33.505829595906775
186 62 0 11.50647139717087 47.84130253496356 40.85042455059032
187 62 1 8.896468990466907 48.18991470909929 42.078130938295736
188 62 0 10.883373588216637 46.679447406234885 40.19826487320184
189 63 0 45.03481610035208 9.512389118139826 14.98450286602845
190 63 1 44.654213165976444 6.13509517763086 11.068128800072376
191 63 0 41.94873671658751 10.254165820052522 11.15896444248991
192 64 0 25.69615575106762 20.511997473845586 27.64291414530523
193 64 1 41.88512705127718 10.097202263118492 31.53527867981291
194 64 0 40.12798970034795 8.618606214386036 32.36838734475003
195 65 0 5.879892211169515 38.32187475350252 31.449321220950555
196 65 1 5.345475577518268 42.441166039291964 34.71403679891227
197 65 0 7.083827645016293 40.16199727632013 33.77151120612525
198 66 0 21.498938030222817 23.889775828091466 44.1433642418059
199 66 1 22.354452248365206 20.382514132046257 46.73802572594864
200 66 0 20.589504699006685 19.534850104743818 45.26723218052127
201 67 0 15.148174702920095 9.536218026446173 16.511789278708633
202 67 1 17.571582067386228 2.5486284348507438 9.840814406567269
203 67 0 16.97155892975499 8.781135300641944 15.676346081148397
204 68 0 22.167469146277902 26.744715411259694 27.890527667416073
205 68 1 25.05296226517808 39.38886079530937 0.09801675457778147
206 68 0 18.84440954724175 32.1014315762427 29.17486749534879
207 69 0 45.86190315857944 41.20379760549719 37.66036696125234
208 69 1 46.87343876874541 42.681410526457995 36.81734552731931
209 69 0 30.5101245572114 45.614592433967 35.000574950682264
210 70 0 22.103169000651924 34.173024355416054 44.77232417975798
211 70 1 24.09424869000997 35.969756475914735 46.24141209283374
212 70 0 22.22831416903725 32.71140743099021 44.49760242410395
213 71 0 45.96265819053506 24.090535137383135 23.68523460447533
214 71 1 46.69195767371753 21.850188428512652 20.79980921314463
215 71 0 42.483955309358414 23.030307621414096 21.89143504649513
216 72 0 31.992379426130814 10.522502112052617 11.86412468545397
217 72 1 30.433529212363 11.267818951004191 10.005611976210409
218 72 0 31.98818428725605 10.1868568719754 11.638188628719172
219 73 0 18.551044970815422 38.97626157141783 12.9887399924609
220 73 1 20.028029893366245 40.71868860071323 8.757142823941225
221 73 0 19.369794225397712 38.28876699922338 9.824720592285939
222 74 0 24.23654921281597 31.02092103273836 10.375000407386919
223 74 1 23.08080095348736 32.52569152044541 7.388106515121942
224 74 0 23.82079377711027 29.502334861596854 10.80990004465031
225 75 0 10.593059070929804 13.586266247966373 15.19158223979305
226 75 1 7.452456213339799 19.76252283511745 21.140538241600233
227 75 0 8.24605398585918 17.618567657697053 23.213564737800187
228 76 0 30.621816387102697 26.97799511476824 23.959203762588807
229 76 1 35.65425235487181 11.285045754214636 35.07992012569214
230 76 0 34.72206458260012 23.956999445533782 22.97354876103868
231 77 0 12.466632105517911 5.833898567479457 24.102091212009615
232 77 1 11.704931422496273 3.1052783131944857 24.78203501119371
233 77 0 15.059279143688334 4.6489471544857714 23.303665700542147
234 78 0 5.583545526329461 11.139555279173848 5.639709870243352
235 78 1 5.982762933262018 12.74630416685635 4.62880174345709
236 78 0 5.616336756110242 16.401756062972193 4.942873742892727
237 79 0 11.597098287922416 14.858634392912007 22.448969625550383
238 79 1 9.626339653074172 11.800511389663116 22.57022850072811
239 79 0 11.559606860685111 12.252515642563319 24.6435123123777
240 80 0 43.306372549263585 24.79609725024206 37.20817644410271
241 80 1 43.907264682237205 22.472181415762723 41.468687940535304
242 80 0 42.83953610519668 25.478678447883226 41.42537576099727
243 81 0 18.628334594625088 15.570713399052092 23.72977786847812
244 81 1 18.586726176319278 13.999352560037616 24.751854075351833
245 81 0 16.088910592832722 17.199478263477936 25.250611267513943
246 82 0 40.63584891548046 1.6810577646655924 8.942557587807032
247 82 1 44.052600074862816 1.114956441466246 9.790726144662518
248 82 0 29.81681959158135 4.373773369653426 7.5467177537770835
249 83 0 19.330299000222375 29.18625982570892 40.149605704075995
250 83 1 20.082462110293083 25.193690636303987 37.05714463275803
251 83 0 35.25342448698883 35.9759688941461 20.86113540069498
252 84 0 16.555686763764502 35.33015438786657 22.050399757184497
253 84 1 16.360852595793137 39.46616010345306 23.451019564940577
254 84 0 17.02745188930893 37.16870583937631 25.96365961235288
255 85 0 46.396309742547004 40.19120223866119 30.19832076614735
256 85 1 44.95854554797958 38.07367129272825 31.633444971428474
257 85 0 42.23332131970764 35.35157886287687 29.306836218110682
258 86 0 27.447843470692323 34.46013158845616 39.12219566111197
259 86 1 24.897036823468273 36.81500529450772 41.22192100948578
260 86 0 22.455913559670254 35.08781790490893 41.51045941397896
261 87 0 19.076636707854558 4.862094612247746 18.716745677939965
262 87 1 16.004663432621214 5.066631460464521 20.1140323275848
263 87 0 14.496315848323269 7.8821655341230095 19.288923650435077
264 88 0 36.617001377125064 32.830615918754894 16.39889799329015
265 88 1 43.60703006629365 20.181604337163055 13.431293962944883
266 88 0 40.426640210486894 20.137332934405944 11.810795253128427
267 89 0 40.70138756939217 31.99016030311979 42.74303254343615
268 89 1 39.45963003401816 34.82215191042701 45.77087455618111
269 89 0 36.69887523686261 36.278725966908475 45.136677157032594
270 90 0 35.89721225881808 10.98375388031927 11.03955755826644
271 90 1 39.88526039314093 7.923021546752018 11.846521068566041
272 90 0 36.86650052127615 9.01840097866025 14.7118688782917
273 91 0 18.322269184965844 8.28336255387152 7.498129118994841
274 91 1 17.575013914341742 6.0343233889065155 8.753307253407044
275 91 0 23.462498187863325 6.910190068959871 10.4552031233498
276 92 0 16.597660142085026 27.42530619331179 29.827503651171995
277 92 1 10.260982657044979 33.36938561496157 31.93700828722876
278 92 0 13.376495114546046 32.57500187733411 33.2499210563859
279 93 0 18.668583607329726 10.150294675176871 11.630970214820744
280 93 1 20.98951523100402 9.707975303814452 8.846844004146698
281 93 0 23.320677173791072 11.185754513609485 12.455871210611548
282 94 0 29.51511683895023 40.810097200998015 38.614606679957774
283 94 1 25.43202233872798 42.80208768176301 36.94155459802134
284 94 0 22.17466729872043 42.021223296557466 37.955375376739134
285 95 0 13.01602510433039 16.33549390084509 42.126254231357564
286 95 1 10.427929144580721 17.301403087349055 44.20580570390734
287 95 0 14.08292255058295 17.03906023290884 41.43040238698957
288 96 0 16.90875511260989 43.23018516463832 21.728052457596736
289 96 1 15.327126611624891 42.15217806717096 23.844331512496396
290 96 0 18.402911934204823 38.54901884658608 24.291185887510903
291 97 0 29.291342594772534 4.869334007131793 9.482263676549106
292 97 1 31.504138067147075 2.713302764339595 5.669573393088675
293 97 0 31.64702306027162 7.190676545637185 8.548591026090095
294 98 0 19.223923576644378 38.78450220642595 36.90051035439986
295 98 1 17.285231610886726 38.79552756030811 36.21343393251363
296 98 0 15.798363591438825 39.41007348984126 34.250644940302585
297 99 0 39.07384276309132 13.078611842267119 43.75086647290082
298 99 1 44.03646433731634 7.902473942554506 46.91364261575372
299 99 0 40.89461828562889 13.80118613001925 41.143638502660224
300 100 0 8.759192060117064 38.815157175484856 39.21517125058559
301 100 1 5.029927320059315 41.095151980658535 42.25744063921638
302 100 0 4.816436339933477 38.61711392601741 38.84456743588396
303 101 0 36.91219339987307 13.91604424504386 4.264764921796213
304 101 1 40.56666003317421 10.503135649184047 3.939810120135352
305 101 0 42.7865148690096 13.156240407502077 10.040536565842448
306 102 0 28.076787774036756 23.296739748851895 42.581486450580606
307 102 1 26.54880907387063 24.67035328558063 44.02584832705835
308 102 0 26.60220238340473 27.014226909117095 43.08113823726977
309 103 0 37.12686214166142 8.43180639879539 16.56456781952201
310 103 1 40.92933327528042 5.046701751529435 17.439920530739055
311 103 0 37.32898942001229 6.602862808967384 19.36103472013999
312 104 0 34.97137174680678 8.08696824881723 12.554867318479985
313 104 1 37.573836473988806 8.459515546007568 12.06972671348663
314 104 0 34.11798854178299 11.338046558409486 12.950598815959625
315 105 0 33.225139791116604 38.78688941936962 12.028407199520313
316 105 1 35.97518171100859 38.877785713449754 11.357879733044598
317 105 0 37.615344315678406 35.388473497974886 11.66977645016933
318 106 0 18.70826076290565 31.455267682784992 35.62293578385288
319 106 1 23.847080639991873 39.775222846809996 40.82899589298551
320 106 0 22.803257903235355 39.4480846698255 37.27788286840819
321 107 0 25.734749929294985 33.48922473684824 7.402313919237656
322 107 1 26.345892452390657 36.03795467536172 6.230325870263404
323 107 0 28.78147253566848 36.31789732315114 6.467986028935663
324 108 0 16.859455530434573 25.147672663866143 20.50098505592534
325 108 1 13.649191412236338 24.639188052073262 17.014427056615464
326 108 0 13.15745554319972 25.69212874836368 20.338035028758124
327 109 0 44.42374506082021 26.510710882931356 40.22105252607748
328 109 1 44.832677700402805 24.906612381331218 41.93704254264922
329 109 0 42.338828336734004 24.283658017297217 39.669141258216015
330 110 0 20.21520083421977 33.36570568681909 4.511868974179719
331 110 1 22.81594530071253 35.74212024409702 3.6402423709924516
332 110 0 23.425932586762322 37.59805231737108 4.740617897867924
