ITEM: TIMESTEP
72
ITEM: NUMBER OF ATOMS
66
ITEM: BOX BOUNDS pp pp pp
0 50.0
0 50.0
0 50.0
ITEM: ATOMS id mol type x y z
0 0 0 27.095441537650547 24.322073617066437 32.48098112015193
1 0 1 26.97023902909994 23.150869035351 33.026978068269194
2 0 0 26.60639396326047 24.535465975214453 34.12524309339049
3 1 0 26.20772086165233 43.6046233642131 8.15529389983238
4 1 1 26.637164954808927 43.50515511001458 6.7718798507804765
5 1 0 25.562637233286377 41.386807475738294 8.39957761669414
6 2 0 38.395417499077105 25.972773647269335 38.90832411064003
7 2 1 38.0898272236453 24.61324348002564 37.84448718216795
8 2 0 36.32517246851974 24.897833502133327 36.097068393346575
9 3 0 18.01318303755187 33.28445863496521 25.06255592352182
10 3 1 16.11627088253317 34.916562630814525 24.08406295931171
11 3 0 16.582163070514746 33.03627216293059 24.35464963168244
12 4 0 33.711514046550484 18.88487851342849 25.312864014014007
13 4 1 33.94829253767206 17.881201062096892 23.777360107079257
14 4 0 34.05837479866385 16.479780625579245 24.400812823720734
15 5 0 18.130765553095333 18.59008166943908 24.917254713828335
16 5 1 17.029292842973057 19.43899771888503 26.111969246114
17 5 0 17.205288902555406 21.291801980591178 24.99661726754693
18 6 0 12.260999192978574 20.70434861654765 15.684483512330454
19 6 1 12.301867249967808 21.59108885039106 14.36122616108616
20 6 0 11.934013722689803 20.471189707741495 15.548412935535108
21 7 0 35.67888471730483 7.294873744020745 38.48243672042222
22 7 1 37.31280090083963 7.465094879061315 39.67313368865807
23 7 0 35.826522163619515 9.599502689129663 38.97077716645518
24 8 0 7.314390106938152 15.454031830271283 9.60425178309256
25 8 1 5.125425047211763 14.591831239757864 8.171209159348683
26 8 0 5.675048915492319 13.50047150073448 8.676796054390714
27 9 0 26.2959627939516 12.363942664458168 28.194912735319264
28 9 1 26.690190603545318 13.58333092714795 27.66830503215567
29 9 0 25.3523476679616 14.616000744172528 28.798063708184653
30 10 0 33.2044366592792 16.116976652552193 10.231797220487158
31 10 1 34.42934577138216 14.749870708812303 10.73261456346543
32 10 0 34.241072334828225 13.786563587795316 12.635505194716233
33 11 0 32.382216335241914 45.760563066540605 13.232050974893808
34 11 1 34.40849556857727 46.39159772777379 13.336300096791058
35 11 0 34.28047328666846 45.21818409303219 14.502366886838614
36 12 0 24.75475031599244 47.85692243756315 36.46680523496287
37 12 1 25.39438245985316 47.789611944504436 37.91275616829237
38 12 0 24.6948048975909 45.6033661053079 36.17034080809453
39 13 0 35.204553568457676 27.29222291145046 45.475232133417514
40 13 1 35.67722634526929 25.861966649941795 46.21561793974814
41 13 0 35.42744438850056 25.256166623638638 44.88791809952857
42 14 0 12.421499031765071 28.305500125806784 23.22570954738357
43 14 1 13.398675685223628 29.258631251165227 22.402984523224514
44 14 0 12.9680795234376 27.981763150585266 22.821982725578195
45 15 0 31.643388259430218 22.646122899593152 43.00163680955965
46 15 1 31.725100068620435 21.946259504425846 44.195623998293726
47 15 0 30.35839970023167 21.857286358032425 44.36180616479781
48 16 0 43.85486261453598 37.49659833301907 43.484437936247794
49 16 1 43.68187299304206 36.70751644896896 45.45139109218316
50 16 0 41.77092057737704 36.96853631276953 43.72799841065021
51 17 0 24.386181625454743 37.89708644966852 42.817806138686876
52 17 1 23.627215482458574 40.009215735696706 43.02432010928429
53 17 0 22.51477025921229 39.732673422525416 41.38935499488695
54 18 0 38.34646313035876 6.060019347206412 17.95763604763538
55 18 1 40.64561207363298 3.662808467997707 18.621616123815258
56 18 0 40.601818642756776 3.7664336787757824 19.80987969740627
57 19 0 35.96142434545668 12.10319794792721 14.816900926259281
58 19 1 38.076824050574125 12.39505289085753 15.577045509537259
59 19 0 38.889144777642144 13.936452437365803 14.749491643187131
60 20 0 11.892619177881267 43.78419418581147 30.63711803532356
61 20 1 12.487069664771404 45.013693964450496 30.908434570892105
62 20 0 13.646123812982454 43.93883454426293 31.366149979773272
63 21 0 10.645791503713955 42.59146351250623 32.9009058900779
64 21 1 10.449886250740985 43.876607373633576 34.296950240397955
65 21 0 11.255760420858525 42.140891811644295 33.22657200807249
