ITEM: TIMESTEP
76
ITEM: NUMBER OF ATOMS
333
ITEM: BOX BOUNDS pp pp pp
0 50.0
0 50.0
0 50.0
ITEM: ATOMS id mol type x y z
0 0 0 27.102409685717213 24.617862014392838 32.41970380526222
1 0 1 26.97173556811642 23.099011877123708 33.008420635734765
2 0 0 26.463324868123387 25.116108217926712 34.54588968382879
3 1 0 26.059095080880564 43.56382298245499 8.57588277375885
4 1 1 26.685082257657452 43.58329055341734 6.685978418635866
5 1 0 24.944144116885074 40.18405722126837 9.348952978257428
6 2 0 40.56917233060146 25.00104185640919 36.30762336515623
7 2 1 38.43565312960997 24.36537253030289 37.45486251720017
8 2 0 35.55998140300803 24.938577185537802 34.945007778766396
9 3 0 26.3036183233129 7.072221969865495 35.427640484318026
10 3 1 28.89257389621232 2.901999159992827 39.89024972240503
11 3 0 26.778009709180093 7.775056723999761 37.55167045969114
12 4 0 33.61539375130084 19.285502332726864 25.950791599982487
13 4 1 33.953082286185776 17.88218540016016 23.72325956920095
14 4 0 34.09313126710621 16.034711256250276 24.616695304608275
15 5 0 22.922369504954304 24.336752130178535 39.144716348219276
16 5 1 23.217927245554474 27.278550978465805 45.59824360797641
17 5 0 21.89719376758405 27.663753588127616 39.02608445792275
18 6 0 40.956593835194845 25.082646337658563 10.380017314448812
19 6 1 45.4573219825831 37.98848676905837 9.43767129675043
20 6 0 41.96290975066167 35.782928681578156 11.325960455657064
21 7 0 34.92042291073991 7.260720009958947 37.93689645504367
22 7 1 37.41287365655612 7.394002936637557 39.73260858325299
23 7 0 34.982994067952944 10.769586028934599 38.565789175729485
24 8 0 3.692269400787496 17.64896903854937 14.618221967924958
25 8 1 3.5748050132364173 15.196245684095933 9.66239887052321
26 8 0 4.918707014366121 13.75451098319553 9.716256368409617
27 9 0 17.9886744287648 5.764992969142705 20.118746764114654
28 9 1 16.32837756765663 5.168208356685064 17.629703505858974
29 9 0 16.404309753220964 8.070099703719688 20.92550906089518
30 10 0 38.3737450616039 16.096193815117413 24.14408153494573
31 10 1 33.84545870543381 15.793493714909317 10.814582873295338
32 10 0 30.244483634757554 18.22082874405226 10.660227753670705
33 11 0 31.43078199052775 45.44649669220608 13.201474235836905
34 11 1 34.47325896627978 46.43820651685612 13.312287195492884
35 11 0 34.19583942743356 44.78575490801094 14.91810627687607
36 12 0 39.00530755171811 38.97508628441911 11.869257434667164
37 12 1 41.82659233197018 38.00397147277261 11.003340484931742
38 12 0 41.95548759911444 36.261039409162734 13.93685270277495
39 13 0 35.027325235237264 27.804812494985008 45.18098105367114
40 13 1 35.69401532029847 25.83923786903822 46.25981745567195
41 13 0 35.34991664330478 25.099525980433377 44.47419084702852
42 14 0 12.122688189801208 27.915752263921707 23.485904753427636
43 14 1 13.430883179398167 29.30162557106238 22.37780177934747
44 14 0 12.778184041027908 27.664464049146634 22.992642301579608
45 15 0 24.93470612484876 21.63778865987196 40.35302877102682
46 15 1 30.73031982595738 21.82101590542137 43.73811253420354
47 15 0 29.46647825869081 21.80769518233436 44.29082257546143
48 16 0 43.69293785557231 35.94335547422784 42.184539118305416
49 16 1 43.68550416044807 36.08450199709479 45.45881567337597
50 16 0 40.70857691952001 36.69905293784469 42.68769566422439
51 17 0 43.48800731689716 21.61796603650577 26.373936911976656
52 17 1 44.73225824231853 23.27724505565408 24.707950882620185
53 17 0 41.11830678344362 24.49559169342868 24.325849292844286
54 18 0 43.15117853878087 13.99451193518746 20.713730930356693
55 18 1 44.30084584577167 13.891656748005513 17.485987397829913
56 18 0 43.09106244089319 10.809700254351075 18.658327775805684
57 19 0 34.924960318434806 11.972592866798779 14.429924468075454
58 19 1 38.120785986459694 12.362470897442137 15.622986846761172
59 19 0 39.22381649460369 14.594885054511268 14.390230550700739
60 20 0 11.948521683668435 43.52998119970744 30.602876823646668
61 20 1 12.806626553707607 45.22666795237678 30.92415249305292
62 20 0 16.25336164189129 45.086838793756336 31.649925201420775
63 21 0 10.685066408432098 42.06441270098052 32.232706445617374
64 21 1 10.394373600697305 43.98214093753391 34.34268899010228
65 21 0 11.60485065438583 41.309709758361286 32.65221155041119
66 22 0 28.653975437998906 18.759005969545473 10.279969362747389
67 22 1 30.78846491173715 18.343214973483285 9.0188906177263
68 22 0 28.793066552487648 16.95950925964685 11.916691223978583
69 23 0 44.29998329231869 12.755175072054168 35.00464726578294
70 23 1 46.27432236563914 11.158084070766765 33.99692732094743
71 23 0 43.43549846010795 10.0930562326826 34.26411158181136
72 24 0 36.215976949798275 30.13304661175145 40.35039493326747
73 24 1 37.98319371381164 31.48724549064229 41.080744876555066
74 24 0 34.48752069914116 31.978671639020067 35.971757739241156
75 25 0 46.553285214395245 35.465387207344385 11.692636608749709
76 25 1 45.456075142254626 35.9047546829934 12.02751703532051
77 25 0 42.35332690555908 35.02550727778727 11.080061116198054
78 26 0 22.479548354940842 14.246082558411153 27.56848734057847
79 26 1 24.301603729687336 13.185625601748015 28.667855357913258
80 26 0 26.349217168306335 12.442088642850235 28.394392533053082
81 27 0 24.569709311396622 13.229208420165339 11.115930574923015
82 27 1 26.093572481103763 10.907594055246514 10.937625335296538
83 27 0 22.98882813863428 10.91275423581395 17.184481501840445
84 28 0 13.683514039299379 22.076137196742053 22.130072920751953
85 28 1 8.890846830518683 26.257517658053384 27.56145598212464
86 28 0 11.840710074136181 25.593636141682392 26.65971946322803
87 29 0 29.561703579282728 32.7784493342287 18.595725917526433
88 29 1 31.75001127521628 35.3739685440744 16.149003173284903
89 29 0 31.761593934206573 32.63881806034722 16.65352874903783
90 30 0 48.14984902601589 17.05317998719698 42.69132184484533
91 30 1 48.068316046418865 14.696278866618961 45.07460512408398
92 30 0 47.95765176950008 16.953000932184654 44.00116640424153
93 31 0 27.592849820956506 4.060215555484237 16.148306226827877
94 31 1 29.42395029660002 3.94399637909642 17.628007817920874
95 31 0 28.825337080561606 8.137906874391986 18.776617880802625
96 32 0 10.387105421767496 38.57835306996347 10.750039246477748
97 32 1 8.714101161094877 39.108405619083655 9.704413199372008
98 32 0 10.143099321584684 36.57607046999357 9.179601768030645
99 33 0 43.65153450323138 38.913944505694616 22.222781245684185
100 33 1 43.40460294566452 37.5379646298281 19.85551568905985
101 33 0 40.88545580414322 34.55742653781475 22.800440401469366
102 34 0 1.5375902890315027 32.3470429175827 12.295200837114987
103 34 1 1.0591286550190717 34.926362892170175 10.191657701464292
104 34 0 1.2593358999886894 32.447860680823894 12.078090953243818
105 35 0 34.26066633809232 24.1566380988973 38.21894033588954
106 35 1 35.8731347032261 23.51555488847776 41.18439274971585
107 35 0 33.882441613538035 22.483522815434668 37.26485434217395
108 36 0 35.09635185089216 43.52733296480435 44.397586747987816
109 36 1 37.058635245411935 46.57623136479041 46.07882443730568
110 36 0 34.858986661528434 45.1286294230799 41.75823409891448
111 37 0 19.581595672793547 24.526431311163766 32.14484116808326
112 37 1 14.964947672512025 20.357396976899757 29.38048272294558
113 37 0 14.364903163419996 19.756149239433196 27.026992014222913
114 38 0 10.721148923249649 33.1866547380339 25.977164061601073
115 38 1 10.63847747957605 29.759084519216135 19.686030288044243
116 38 0 9.649906985506288 33.485508537148185 20.228118058726803
117 39 0 23.032872550776545 31.593979613709777 16.400999619151985
118 39 1 25.741150547207006 32.420693238136685 15.25481214621521
119 39 0 31.74567070210616 30.004901217513044 11.388882044253354
120 40 0 21.028876885023067 43.41459501226097 24.46342881833389
121 40 1 22.866950916425544 42.9111033206771 24.289455612680303
122 40 0 24.193968531256132 40.79159693682488 26.180937224657296
123 41 0 36.95583638847343 21.23872489105832 8.088120315367998
124 41 1 31.297839002435193 29.97322788972273 10.97146275547973
125 41 0 34.8776563152134 21.369856846397045 10.518697559320694
126 42 0 23.44369355862336 45.224278224308975 31.43506308391936
127 42 1 23.688229000886246 47.09763097585255 30.171965924894575
128 42 0 25.60596173353619 47.074685869678035 31.216905950275983
129 43 0 8.266129673214172 21.110718148610587 19.163620174313102
130 43 1 6.061968846771375 20.563775646653202 15.95781156091349
131 43 0 8.880342557716698 18.943630660230163 18.325440156411492
132 44 0 10.229901716688742 20.82908893896939 40.26668207319676
133 44 1 9.483881135000647 21.333939396083306 43.949105570353034
134 44 0 8.966977735835254 23.928069220715635 44.274456241409446
135 45 0 29.20103180405615 5.076972443725803 2.7556639188358267
136 45 1 30.049783408759243 3.9232252017072153 1.5432610777420221
137 45 0 29.648251042065045 6.831739229682916 1.6346026017280122
138 46 0 3.848225134398238 8.706489585240282 27.09319660203627
139 46 1 3.2894029211624973 8.937238638601753 29.56111204345214
140 46 0 4.403030409057511 15.330164647285903 31.695889604627972
141 47 0 39.227893651639754 10.74232040741994 39.040792748515344
142 47 1 44.527121649177424 6.177422002264888 38.60330561252344
143 47 0 42.18726402338059 6.225375283083529 38.02869911446824
144 48 0 5.000057427962594 19.20208870297077 6.026642770919214
145 48 1 4.144972019817904 17.63454262177436 3.831570100108721
146 48 0 7.169302445535146 17.875409915812593 5.144143182136144
147 49 0 17.276490055807738 22.58735344299479 36.42090039129084
148 49 1 15.249051162886193 20.57988326876194 39.253200091518494
149 49 0 17.95720224946834 22.765988748865805 40.040284907378656
150 50 0 8.716905304150826 46.9887100561358 12.717543675073726
151 50 1 7.964308758745084 45.99439350629482 13.198529872976808
152 50 0 11.519565297160922 43.958010480996705 15.469626238585318
153 51 0 21.708125357541057 33.45722363790175 13.013130966233515
154 51 1 19.340020268328352 35.34468843807725 12.436601629656234
155 51 0 17.841258336081236 34.03667369350976 12.707765177655311
156 52 0 46.36880977827548 29.008017308674443 40.39985980354524
157 52 1 46.85831024053877 30.96343377265943 42.02687986822984
158 52 0 46.93460382686013 32.20095685914672 41.09962483475947
159 53 0 10.027698349572146 18.87303131293708 10.438069850523263
160 53 1 6.73995054336734 16.04644016529955 9.533001860795041
161 53 0 7.782972481598904 14.800169476254334 11.482595497949845
162 54 0 16.326316355929137 32.68282258553749 32.229072887753794
163 54 1 15.751969277074592 31.579672487337977 30.273394755559693
164 54 0 14.829586302120566 19.645783180639498 31.432096079916196
165 55 0 11.870973482150644 26.074805471489597 17.741437481057474
166 55 1 11.135626065041603 27.438729609263397 17.777489150969412
167 55 0 12.25330905654555 26.908682296883192 19.681731597579148
168 56 0 6.799453352352208 16.931618223345613 24.890426167316733
169 56 1 5.841036199283807 14.121622204098475 23.24553767630572
170 56 0 5.6277110384786795 14.204769764066283 24.89187713111492
171 57 0 15.348271645715199 17.1801535199786 34.08668520383987
172 57 1 14.072305043199682 13.959213684662924 34.3977177726267
173 57 0 16.13797857906007 16.645674484478437 32.05790624969595
174 58 0 14.366551843161032 28.503084516316648 40.856776962203455
175 58 1 13.736174893096496 29.012660750151507 46.83360235230592
176 58 0 14.622265510561714 27.142657233721184 40.92667583232892
177 59 0 24.67240048045804 22.358741252763664 32.47366734979684
178 59 1 13.49213457574288 9.934553193381786 29.55025639339762
179 59 0 14.686852140653025 11.196205793513414 31.104564392084242
180 60 0 25.22849483685688 45.29137569424279 6.268610403933231
181 60 1 27.15631204264086 45.754929348812595 4.952560329462555
182 60 0 17.100013312987922 33.48511824235468 19.840538334735953
183 61 0 21.793394339745547 21.764868165676667 39.210191449811894
184 61 1 15.379576328560752 17.16640862679251 35.880186666854925
185 61 0 14.658225524506527 18.105861795858704 33.889801885616556
186 62 0 11.080327350217706 47.90816868353477 41.058428200061584
187 62 1 8.944760279667301 48.17002834021606 42.04521470420948
188 62 0 10.536860862681662 46.930777237049654 40.516929615170625
189 63 0 44.956090025701805 8.833884417653678 14.194347313663968
190 63 1 44.62542713125553 6.228670254952859 11.118477545741364
191 63 0 42.48823755688985 9.435555084003235 11.143523157850364
192 64 0 29.51631103846464 18.051423694577018 28.562832044023384
193 64 1 41.630804791240294 10.23667220185465 31.485741585586275
194 64 0 40.37688932490441 8.84763940678502 32.24094799020231
195 65 0 5.769915714058632 39.15602423070589 32.109368582912616
196 65 1 5.3700901240879295 42.36514126670827 34.66262220168263
197 65 0 6.799851770632496 40.54421091732577 33.93409122070792
198 66 0 21.66516469097674 23.207797291851136 44.64775655876948
199 66 1 22.327483060940732 20.417328666784496 46.69261240607306
200 66 0 20.854754293774796 19.659743443579046 45.48947503846762
201 67 0 15.68895909413258 7.979989098290208 15.02598631106798
202 67 1 17.529654603389137 2.7308957617702907 10.013276118021738
203 67 0 17.101605375101276 7.420899403325947 14.402803977743229
204 68 0 22.930193541174468 29.80965203319929 32.89221241117516
205 68 1 25.281368059877437 39.348408968266035 48.823426385122325
206 68 0 20.39924968024078 33.86867451676539 33.844086824840495
207 69 0 45.98395720169738 41.3871258283252 37.555746428152524
208 69 1 46.626583572950935 42.71292697840333 36.797271739308584
209 69 0 34.33775953210386 44.92701644132915 35.42638626622571
210 70 0 22.430576067289348 34.484863064019315 45.0177207168344
211 70 1 24.051352945652724 35.911880699909396 46.20530116494412
212 70 0 22.587167284713733 33.32540433955403 44.83002324969153
213 71 0 46.09508548871328 23.679220188074915 23.158383137803064
214 71 1 46.63237757755383 21.890167349671177 20.846105327361276
215 71 0 43.302971513453606 22.800787818091177 21.679178165587803
216 72 0 31.751848033987425 10.65490532458105 11.588741202981096
217 72 1 30.463306279252414 11.250404232955319 10.039012802788612
218 72 0 31.752483258650635 10.33304361590733 11.37909363141543
219 73 0 18.843618127654448 39.32330813773933 12.151433325642403
220 73 1 20.00310036694885 40.673109583454206 8.820556565608848
221 73 0 19.476063007040196 38.67104920016847 9.647397924264409
222 74 0 24.034267313514608 31.297069550468503 9.842862176594958
223 74 1 23.102654477710963 32.47166006133228 7.46333695372577
224 74 0 23.673284377384515 30.090429773539604 10.138485189655306
225 75 0 9.896391133139138 14.955667379085584 16.5152311992039
226 75 1 7.5042949554801694 19.65439630098704 21.080240227141545
227 75 0 8.113288506036378 17.979202373058467 22.85481827582226
228 76 0 31.808294388779174 23.295400196114706 26.563323251980915
229 76 1 35.566990291490676 11.699151986986173 34.74100284834504
230 76 0 34.93175619560222 21.01392609428163 25.792071679135365
231 77 0 12.334908086748394 5.386014480242591 24.216205124457417
232 77 1 11.752407934241848 3.1515435387505844 24.757576982914124
233 77 0 14.431347092219012 4.356559446786151 23.580924770077306
234 78 0 5.629766654149376 11.350976690163218 5.519629000458331
235 78 1 5.97576909935862 12.77514034099485 4.639694826739904
236 78 0 5.682105084437375 15.728753736345274 4.888603607730244
237 79 0 11.236939032612609 14.302124273090932 22.46908887480957
238 79 1 9.668779635617582 11.840172278492659 22.590129262390196
239 79 0 11.240936683137598 12.174319812900228 24.304933943872303
240 80 0 43.42592578977175 24.33414596861975 38.05611916375291
241 80 1 43.889174955984714 22.535653791621343 41.415562999423656
242 80 0 43.02478998324609 24.96100137956019 41.43501258329363
243 81 0 18.636782989390642 15.37693366262257 23.842252290339648
244 81 1 18.556689184217095 14.049487142805322 24.750579374062724
245 81 0 16.56104814267289 16.59110863626101 25.158507022531758
246 82 0 41.22925884129054 1.5771381459638878 9.081840814512823
247 82 1 43.809320949521464 1.1686364325368155 9.74950541249869
248 82 0 33.11587059376412 3.618721875870933 8.06698946227726
249 83 0 19.505924266979427 28.39715134308865 39.49991901039897
250 83 1 20.29778121089411 25.403390295698447 36.855930879349714
251 83 0 31.632663006878797 33.409895177483094 24.73021380333745
252 84 0 16.518140451106184 36.12906386345456 22.321508182538672
253 84 1 16.370673369369005 39.39102525785336 23.462301527420863
254 84 0 16.90834890668685 37.57945180316695 25.514922467285665
255 85 0 46.15214499871734 39.833470119969014 30.434720233908877
256 85 1 44.9404294350849 38.06263431210711 31.590396465443487
257 85 0 42.767339770993964 35.88589124867123 29.759197691678285
258 86 0 26.96220586201601 34.904924153676106 39.520412628997164
259 86 1 24.90141166201742 36.769215745201535 41.20016212309284
260 86 0 22.87074591362567 35.37787763695261 41.45992549588803
261 87 0 18.528882142827904 4.901608749904686 18.963973767398365
262 87 1 16.022546463996793 5.095247015334163 20.08585936874016
263 87 0 14.765335210141242 7.386269675813194 19.43234068071228
264 88 0 38.234909971235496 29.89517977641206 15.708072398668257
265 88 1 43.47053034648569 20.363712366956044 13.455999051291563
266 88 0 40.99272971305191 20.1590550654305 12.106324442229345
267 89 0 40.458111060923024 32.53906527154394 43.32720382633308
268 89 1 39.44477956839971 34.80386630746435 45.72773196016002
269 89 0 37.17954084797328 36.02235901764142 45.24288485652733
270 90 0 36.6956786752757 10.370004033821715 11.202793595150702
271 90 1 39.79035455456012 7.97649122222993 11.871513239184353
272 90 0 37.443549542506425 8.809297988758868 14.162253511635656
273 91 0 18.20419947320799 7.92727852993957 7.696942600405878
274 91 1 17.659492068024488 6.067968179301742 8.763223604910953
275 91 0 22.228799299551255 6.728001066396892 10.097645063883482
276 92 0 15.197458617193828 28.740555869103797 30.295650354080063
277 92 1 10.3828089109747 33.27847307454766 31.92225792711071
278 92 0 12.827410028469894 32.71434664502056 33.017811829356255
279 93 0 19.0925413632523 10.070041903233092 11.124206954754284
280 93 1 20.991564920159963 9.731040106019613 8.92252543769177
281 93 0 22.863938961484482 10.89710785516817 11.751720635333026
282 94 0 28.69774592998435 41.205209863022674 38.283307391057136
283 94 1 25.44602675604727 42.76881800224007 36.97349075995111
284 94 0 22.768019348576658 42.15852935138742 37.775589254812466
285 95 0 12.554663580765972 16.497126024593932 42.49541670081391
286 95 1 10.501332027546749 17.287739909312027 44.148845862011385
287 95 0 13.369903103431126 17.095697099517984 41.97263424753171
288 96 0 16.64962576760359 43.051168824821936 22.0766746954046
289 96 1 15.381516443318304 42.11820958647437 23.828089350241058
290 96 0 17.79129501311288 39.26402627733644 24.199538346261306
291 97 0 29.730169565677556 4.442311757604829 8.726529318821186
292 97 1 31.478553164068675 2.7965974253395256 5.753186753687769
293 97 0 31.617630463953482 6.284874611705457 7.966667240014402
294 98 0 18.968562920445287 38.79069339055107 36.798782693474685
295 98 1 17.286394207465907 38.80093164320744 36.201027594984296
296 98 0 16.035113687292636 39.31741330891608 34.550873405047454
297 99 0 40.14715345593786 11.961648034140142 44.43127897072524
298 99 1 43.92638764267561 8.053272786828929 46.791772724765096
299 99 0 41.58253170090517 12.505361661571811 42.41315772313164
300 100 0 8.003000179564518 39.276679242947885 39.83096370928105
301 100 1 5.0746362681764845 41.0368314746787 42.17836043315931
302 100 0 4.85727706627011 39.08870756170726 39.49407646670911
303 101 0 38.55146555647863 17.187757240485148 9.580531425669788
304 101 1 48.64826162488071 40.878081596035585 44.95776198957866
305 101 0 43.082938416065446 16.57534141049626 14.00295795730698
306 102 0 27.842310086671933 23.50880650060313 42.80262374300388
307 102 1 26.56392980459777 24.679713295649847 44.00297317631941
308 102 0 26.594805140847615 26.65238052804266 43.22590129267562
309 103 0 37.891231594431744 7.751331240447062 16.740533844034353
310 103 1 40.83832544867341 5.107941132379255 17.451955134149195
311 103 0 38.020753689450295 6.303456958962533 18.992594538669238
312 104 0 35.382406794824625 8.137228327870698 12.477718633848296
313 104 1 37.51466802902078 8.489446170513554 12.08448528045688
314 104 0 34.796459475357175 10.77612332391262 12.777980552260045
315 105 0 33.678596215627095 38.797934971306816 11.918634303471077
316 105 1 35.96615412647485 38.83639808408751 11.368331465643733
317 105 0 37.30621257099749 36.0396335932989 11.61229445511393
318 106 0 19.87167607064202 33.34040740183102 36.79873678425803
319 106 1 23.762771588007865 39.65388313132817 40.71541679991075
320 106 0 22.989585132030946 39.502100185004075 37.91975945993602
321 107 0 25.83729964528958 33.9107221915584 7.2087275002596405
322 107 1 26.362613566043823 36.0143631292454 6.244643045284343
323 107 0 28.411789929890894 36.27399345743897 6.432615561041059
324 108 0 16.225679416341748 25.04715104160416 19.812207670598404
325 108 1 13.68344225699489 24.657223897870907 17.09469467454169
326 108 0 13.24351046999635 25.503740381784628 19.74242822330293
327 109 0 44.49014346457565 26.279279678558687 40.47672950844612
328 109 1 44.79984621228345 24.912097330719845 41.89522972464923
329 109 0 42.782405257155524 24.391344230171836 40.074909533733646
330 110 0 20.690279568039575 33.80237360558708 4.355183850949401
331 110 1 22.791944882683904 35.73155207942845 3.6595473306845903
332 110 0 23.326233186791914 37.33114577376786 4.586870458508826
