ITEM: TIMESTEP
78
ITEM: NUMBER OF ATOMS
66
ITEM: BOX BOUNDS pp pp pp
0 50.0
0 50.0
0 50.0
ITEM: ATOMS id mol type x y z
0 0 0 27.101481589005406 24.10642532344883 32.4824022125498
1 0 1 26.964426113708647 23.189705280300608 33.04281876079248
2 0 0 26.69335769751115 24.129739613281007 33.870372203614714
3 1 0 26.313976296504173 43.68316906885753 7.892912589128109
4 1 1 26.6046744968487 43.450814532314496 6.828618843318764
5 1 0 25.97622458228179 42.177709397778635 7.754130996504699
6 2 0 38.30057477226586 25.62204678616142 38.616631689424224
7 2 1 38.056536620230816 24.640812314433887 37.82351457625334
8 2 0 36.95268124428689 24.807460365515983 36.72429724828682
9 3 0 17.34317079789489 33.91946165459267 24.715743356503573
10 3 1 16.170883577655886 34.84465567196932 24.112744096959624
11 3 0 16.378421710110807 33.55187586664436 24.242591914743336
12 4 0 33.77683317902186 18.612739214010347 24.882491374715755
13 4 1 33.945625807391906 17.87943231134044 23.813363420285388
14 4 0 34.03573272820372 16.7802284194701 24.255130655026708
15 5 0 17.82690003016703 18.809519133351255 25.253702586282454
16 5 1 17.052245973458984 19.462148474760365 26.06808527258097
17 5 0 17.141901312290287 20.70194868088187 25.362314790818377
18 6 0 12.388187252563231 20.98640596383719 15.438343629012833
19 6 1 12.294797701984399 21.559492449042644 14.399784971348605
20 6 0 11.919938962037342 20.69467376934676 15.177608248637865
21 7 0 36.17391277871615 7.298108410555452 38.835143002532874
22 7 1 37.246598829082295 7.512954540252041 39.63399693620095
23 7 0 36.39072774405825 8.830512180353917 39.244259348054875
24 8 0 6.490828315769206 15.14865511957448 9.062974247913237
25 8 1 5.185289043701963 14.602615420432658 8.211826196974389
26 8 0 5.540784601370206 13.633299223003073 8.568199055082898
27 9 0 26.384286743557393 12.567916532673694 28.085729626568835
28 9 1 26.658993144619537 13.58946376960934 27.696931458007732
29 9 0 25.763175254401958 14.313888876185278 28.44922781765546
30 10 0 33.54941920419459 15.719480652317172 10.393877563140663
31 10 1 34.40483374310358 14.75482398089562 10.760387088213387
32 10 0 34.28821285464134 14.104851738112528 12.028971972392595
33 11 0 33.01493814434748 45.977780150091846 13.243736335783193
34 11 1 34.36433558395071 46.359985162802005 13.352504586011186
35 11 0 34.354315935630105 45.50676986132492 14.231413497652223
36 12 0 24.895079600399903 47.931051262102116 36.790364412594755
37 12 1 25.368282168871065 47.73399216586145 37.84959610830474
38 12 0 24.972083602893072 46.41916383780418 36.857336823670195
39 13 0 35.3254111070698 26.95619001572665 45.68493921421767
40 13 1 35.66585934981402 25.877550525625484 46.18484885126063
41 13 0 35.48858189175062 25.342986051627694 45.17059919169553
42 14 0 12.58165188599175 28.625810916458303 23.080056313647507
43 14 1 13.376541190123486 29.22789622530481 22.422218582473224
44 14 0 13.162028143497208 28.153123429739924 22.659862599024425
45 15 0 31.68383008233183 22.522797149086774 43.21175656574633
46 15 1 31.707374022126942 21.953806877570035 44.18290721832085
47 15 0 30.601438239698677 21.859723528364896 44.35510233493798
48 16 0 43.84928208811871 37.25851212823089 44.10332538069457
49 16 1 43.64072660126383 36.72907863826431 45.37263991337218
50 16 0 42.43484479124894 36.8616292971479 44.36913017022254
51 17 0 24.141340813001545 38.596570005177995 42.8948358139219
52 17 1 23.622028337682455 39.95951417196122 42.98888132488396
53 17 0 22.842603484238847 39.82840565616673 41.87935291172687
54 18 0 39.29586500244521 5.070005850802901 18.22938127224381
55 18 1 40.585025883402174 3.7264164661146237 18.613197395064173
56 18 0 40.62179943982035 3.7387075044804243 19.67283798648807
57 19 0 36.66872176158077 12.207257863588097 15.065989271872073
58 19 1 38.04797407125447 12.41660535909536 15.546682418716763
59 19 0 38.64351591517257 13.48751634190823 14.98629457144336
60 20 0 11.950029817692549 44.031252194522814 30.665909423519928
61 20 1 12.499165945081034 44.98009853882288 30.91268057079853
62 20 0 13.395763137956413 44.22966272653461 31.268456507827484
63 21 0 10.512705315859556 42.99994779796887 33.238129894888594
64 21 1 10.470911450298455 43.817238261226485 34.250622602161656
65 21 0 11.051850083971877 42.68195652260167 33.6315572876436
