ITEM: TIMESTEP
8
ITEM: NUMBER OF ATOMS
333
ITEM: BOX BOUNDS pp pp pp
0 50.0
0 50.0
0 50.0
ITEM: ATOMS id mol type x y z
0 0 0 27.39282792674472 32.821415916972924 30.600350971623353
1 0 1 27.173238326925052 21.672675049806717 32.47946781007198
2 0 0 23.010932579893407 39.67257894948602 44.82920584978193
3 1 0 21.073255492978348 40.92337414868723 21.697032226475805
4 1 1 27.961194183268756 45.58874806370759 4.357908425166188
5 1 0 9.51075329711309 10.730600943359374 33.480943243963544
6 2 0 39.07671190984285 39.244451144888174 46.81345318633833
7 2 1 39.492649780838654 23.457231439901594 38.73215370855809
8 2 0 13.191171420347015 30.118866993098088 13.994160606062298
9 3 0 4.434157112360481 36.702725952148285 26.054336647019227
10 3 1 13.859869441408344 38.04076927077651 22.896411482559145
11 3 0 25.23430433606207 8.971706957857249 29.15793560815153
12 4 0 31.34113480840792 28.110485356904857 41.86087943055395
13 4 1 34.055490633213175 17.9515735671325 22.330855754427038
14 4 0 34.712767190619665 6.128922197090621 30.99618837829323
15 5 0 29.792148131006527 12.183898881975415 11.067465289392143
16 5 1 16.085297608291754 18.498042774054046 27.911873843136988
17 5 0 20.645391460244312 42.75744493445052 10.0529655517165
18 6 0 10.93036096482218 11.282928301713556 28.43232803798144
19 6 1 44.054931640625 41.338409423828125 35.79045104980469
20 6 0 8.965379988524434 9.285609988807126 28.546668178153137
21 7 0 14.131104786715019 8.83580475194647 23.408950969443175
22 7 1 40.11511338941747 5.506639511138762 41.340953620517794
23 7 0 12.534972629869111 39.39017022691137 27.361299282917855
24 8 0 38.79621916625901 26.774447676114878 30.33495277782492
25 8 1 2.754882660240984 14.252197965872927 6.555171291215426
26 8 0 12.224041921509398 7.653970313419605 13.903544737798278
27 9 0 22.23564933406844 5.285628151130931 32.92379483547278
28 9 1 27.922232432769395 13.346463093576165 26.53713844041087
29 9 0 9.700790603161357 25.48794352155909 42.169012345088056
30 10 0 20.107819884526524 29.36948781835808 7.179161260511496
31 10 1 35.470895041346516 14.539942095933265 9.55142475052703
32 10 0 30.674284918238357 3.8926222354946987 34.587325598016115
33 11 0 7.997699645059827 36.88987830482423 13.298236834091217
34 11 1 36.173563503860436 47.68031390952998 12.662576906187718
35 11 0 30.423981959357235 33.46849363015977 25.21661582993687
36 12 0 17.8389880906199 45.11821397486299 20.46551856174882
37 12 1 43.20593949874505 38.43335338810059 8.992268134261343
38 12 0 41.059525396901904 23.252003023168182 37.52660596568875
39 13 0 30.566390642120226 40.09544871730586 37.36286227970395
40 13 1 36.11697117275864 25.263925497218324 47.40845260507767
41 13 0 33.029327912694924 22.02082060600659 33.9157872763189
42 14 0 3.784200982546594 18.368548371797008 30.596461374209124
43 14 1 14.228432777067546 30.489631991675655 21.679515508184945
44 14 0 8.355656226774162 18.20280281355722 27.052309238035683
45 15 0 30.14782926890134 27.261227289291025 35.137913762639954
46 15 1 32.386778162906374 21.66404117594723 44.67060107512273
47 15 0 21.2685205625378 21.75773060382623 44.62661292691147
48 16 0 41.460666666800996 35.31668493045293 14.542876330826967
49 16 1 45.38643106993096 35.80764748795018 48.79015107386642
50 16 0 15.724371804422441 41.754673707198805 17.028092809773764
51 17 0 32.48737605046605 10.886764658409405 37.82306298553697
52 17 1 42.028648446099965 5.883095951034193 32.858766953532154
53 17 0 11.027360341214134 33.44190684918174 22.3082879892204
54 18 0 37.5266362587491 34.174238200433045 42.19310777358069
55 18 1 42.62287214654038 1.2544866089192075 18.50873334464938
56 18 0 37.75749509241803 7.030535714466467 24.472602578980332
57 19 0 10.602611947049743 10.290692771631159 4.384000309532215
58 19 1 39.284151345730926 11.495205508295328 16.846186149414894
59 19 0 44.93024709235864 30.147124366349576 4.8768076993155285
60 20 0 9.00661473153056 34.25771292148521 29.246528491591125
61 20 1 12.041449512698478 46.28793187486203 30.750323601186427
62 20 0 23.661047350208758 33.075916725824506 35.28810600535938
63 21 0 14.282373544535439 25.666159551144464 16.089878877439315
64 21 1 9.594386017359273 46.38286138974556 36.306272692297995
65 21 0 21.282548446967855 18.98739319144713 17.86026224166696
66 22 0 9.61000314726083 21.09718431937609 14.227713258796568
67 22 1 33.956697890556576 18.71717171907726 9.398152835040031
68 22 0 8.356806186316579 6.681120292403265 28.644181364512196
69 23 0 28.316301672427688 23.42599129772459 42.36878395648048
70 23 1 48.684381511842176 10.925475399190443 33.37044155075841
71 23 0 20.856756003633066 3.1432684358217715 36.92307171107855
72 24 0 21.36382347110489 21.780462017752352 32.369593829617074
73 24 1 40.84756639339919 31.39992316507782 42.99066101419296
74 24 0 19.59146063269382 38.078753775459646 16.595964263276848
75 25 0 47.56838322447882 34.67732230478575 11.04210773929567
76 25 1 46.88448536230938 36.38243563815967 12.528610809456975
77 25 0 18.482223138761388 28.172172324820693 3.7118969143859033
78 26 0 13.050012954316408 19.702378120562308 20.901569893489327
79 26 1 23.273645323161457 13.872109648972419 29.157805107785116
80 26 0 38.99820830219691 7.557438075194126 26.577714167174438
81 27 0 11.20129086278852 30.187563467198636 17.19424039582847
82 27 1 27.93437892629737 9.62997079447184 7.934118861804327
83 27 0 25.19445898661287 15.984848066043574 38.564542636104804
84 28 0 31.077240632145 35.322961594285196 41.76316066397
85 28 1 5.204512503347938 27.566695287130415 29.206479581356355
86 28 0 38.75179721310721 17.403771496893903 15.741398862835764
87 29 0 11.119800086413374 9.01432841922201 39.54174438832869
88 29 1 33.06148002120874 38.270132021953046 14.652380057087615
89 29 0 30.165011899099053 10.805922152578118 22.163102946218302
90 30 0 48.7032843483696 36.98534317864618 23.407358899022164
91 30 1 48.07582748424988 12.385002209740103 46.851669563701435
92 30 0 47.28391101492722 34.00126458672228 34.85211577521128
93 31 0 15.306974219161248 7.740185051444886 7.359761726437663
94 31 1 30.605464817592008 1.4882677002502664 17.63178980631601
95 31 0 12.454965849159692 38.73226724279117 22.54555962160292
96 32 0 21.13636219363131 33.835118251242776 16.55790126970369
97 32 1 7.325072551603057 40.59381051599299 9.547528776249989
98 32 0 21.617867619967797 17.54825218600358 5.8820604928588835
99 33 0 43.51737820365356 46.51144111138678 41.3843701547167
100 33 1 44.753869432080414 38.59103644480568 17.004687638365883
101 33 0 9.091796875 28.92919921875 44.0986328125
102 34 0 5.33624935334862 10.281744481402603 30.13731198803431
103 34 1 0.6967469705894649 37.602861741028995 8.078556611660026
104 34 0 3.2589091047790393 11.68905643867495 28.045505745304176
105 35 0 18.67099417692813 24.039554085742317 25.1680883117641
106 35 1 40.82099020951232 32.21244981265902 20.088789826489094
107 35 0 14.251527659437869 9.736135466916263 15.115273537092556
108 36 0 17.63343745772577 21.0265645868669 30.94496261881821
109 36 1 34.158083985194814 14.62236714463212 18.981122484329532
110 36 0 14.501876049235698 34.06406837909649 6.304247669520907
111 37 0 30.222888559423453 34.65229958802938 36.83433666223177
112 37 1 13.267207030336861 18.95454046166084 29.253009239864085
113 37 0 13.533979821222177 18.6028735997069 13.919035226591376
114 38 0 18.955222611300645 7.3111170171966124 34.76837645362368
115 38 1 4.430972711702379 25.919228152854277 15.88956285022725
116 38 0 23.58459311707085 43.25223199424292 28.714533136401858
117 39 0 7.027978879196986 24.149841066368364 23.09672128832427
118 39 1 26.211160648756685 33.714089530912254 14.481236847314264
119 39 0 10.748864406901959 22.692683941126614 40.601270151316655
120 40 0 12.12085359681806 44.94133923237011 26.35527231603855
121 40 1 22.85131515226245 43.79762048864187 23.277554439388155
122 40 0 33.351876696704295 25.080492266158885 40.47960341959019
123 41 0 35.07613665057445 34.411121127870345 15.62721630253767
124 41 1 37.40495083686212 31.945586514689122 12.528496725288308
125 41 0 14.39620289746426 38.10981355846197 40.27651736314316
126 42 0 22.91242931653712 33.38319374117159 39.96264217807719
127 42 1 22.994628749497235 47.90934792763874 29.1961097808763
128 42 0 37.23481282077993 45.928149721039404 38.30301182871192
129 43 0 7.048949182714793 29.34457890894114 18.558271729609565
130 43 1 3.7198599333421827 21.070017352015363 13.48817480744334
131 43 0 34.02598278619943 5.870408032296853 40.44897059077975
132 44 0 15.943986405757254 18.352221752327385 10.567621320757022
133 44 1 9.318303160983476 20.388845752898657 45.82000987780718
134 44 0 5.895257271179121 41.531515281814144 44.035910976681635
135 45 0 24.360011782222376 13.295701739700613 9.398463483437377
136 45 1 30.51696931382218 2.0223498502315196 1.0387751885492096
137 45 0 26.274229164055864 28.836922792095248 2.9643933637630986
138 46 0 8.929515131308731 11.276084507885702 11.666733243671182
139 46 1 1.3804207188547726 6.447884413878066 30.465918872311356
140 46 0 38.38301742003207 40.1213262972563 22.667608813255857
141 47 0 16.945962918155782 25.809670890962103 27.643395176295495
142 47 1 48.45909879712743 3.7624652144618183 38.88749149381462
143 47 0 21.803474940962893 10.243657958775263 34.38546259696418
144 48 0 12.876426845455745 30.992654773828292 22.91506997903117
145 48 1 3.5149478185072724 14.892905877794409 2.787605452636886
146 48 0 31.04612330285862 21.079738371688126 16.718643616279078
147 49 0 35.132471908471665 40.11832658596015 10.57258067395541
148 49 1 12.527764038954418 18.221457414383558 40.29616483327193
149 49 0 41.26758815217015 41.85635078065223 44.22620082700504
150 50 0 12.995789178541255 49.13549592852841 12.348303118751765
151 50 1 5.800677178399966 46.977802877433724 12.012173270649624
152 50 0 28.23525026655229 12.500927006337745 31.19919037682977
153 51 0 38.68458611628021 18.656777913371098 17.45829315026694
154 51 1 18.91922482496434 36.933340893081876 12.026156911525142
155 51 0 10.72238439622506 25.5286564716029 14.545638510043423
156 52 0 43.047870671335545 16.067258369647174 28.949862610743157
157 52 1 47.0600784672084 31.512454656617265 43.02303706461891
158 52 0 47.02689647434769 36.35720513293497 36.6112327101967
159 53 0 38.795311473619826 42.17722938813084 19.410325688309065
160 53 1 4.3617468527500645 14.998749582939341 8.106794711929368
161 53 0 17.282858516779307 8.321677525610871 25.459690216071728
162 54 0 20.910089833600985 38.18284973098472 44.39485207017224
163 54 1 27.460795250283702 14.235339234498573 29.83349699801273
164 54 0 41.203676175311635 19.016271463908684 28.04709594964461
165 55 0 13.382977541578542 23.218821559597604 19.29866023771336
166 55 1 12.513745198989294 25.278500581592713 15.85524938625118
167 55 0 17.35050467408888 26.045949590535507 32.933976764937235
168 56 0 14.198559407053645 38.95229902580994 38.51525536479187
169 56 1 5.404670313954561 12.608770561073525 21.834730585519893
170 56 0 5.212304547860417 16.388988337820972 33.839480491923275
171 57 0 29.06856407213269 28.17902810015461 35.13626156321617
172 57 1 11.002170855087954 17.4015560520834 33.57479057574963
173 57 0 36.81566765928078 25.053735550684603 18.328857459594555
174 58 0 5.15385443185227 33.583810632270016 10.10666974249225
175 58 1 18.218792282831263 26.56363703322064 44.90309962377818
176 58 0 7.475527528006121 21.642536927914982 10.742322991676621
177 59 0 15.763658145851895 25.803574877552325 17.129338980775724
178 59 1 10.895643247901688 6.485037468915678 28.907527901956986
179 59 0 29.599331155393863 27.707920242618115 43.459359152966925
180 60 0 6.398362881097493 35.717030895691266 23.828118255961634
181 60 1 29.118987410222314 47.832203946013756 1.5516010755632328
182 60 0 33.64809818333045 42.22732226168251 20.35333718428128
183 61 0 17.820755024402743 36.65398466543505 11.169467598757212
184 61 1 21.822631876821724 26.019838649055774 34.16965117285523
185 61 0 9.618297101190528 16.894981141052615 26.939466668202005
186 62 0 26.032891209546822 45.32646839777784 33.58123784501213
187 62 1 7.245923119263981 48.865723447648556 43.20022050430555
188 62 0 22.765655503197504 38.381138994935064 29.513893218931578
189 63 0 46.086865317268504 33.05200507575144 39.91466272053219
190 63 1 45.63881624055216 2.9388963988803423 9.349924600166602
191 63 0 25.142068623556746 37.853213608955535 13.720230314114358
192 64 0 15.987174560236898 36.5078307950014 24.559743811428497
193 64 1 44.59305115571124 8.439859926562008 32.93580833995368
194 64 0 26.85188321824036 4.754946357091312 34.43725730711717
195 65 0 10.435885022311636 11.271826726759322 10.27222860696509
196 65 1 3.7323284353303876 44.65325069957003 36.401959444318074
197 65 0 35.98194496649319 36.07334599810654 28.647095466612573
198 66 0 16.97465582616705 43.27872667537273 24.677579030947022
199 66 1 23.231156711862507 19.290483312054246 48.37400013589431
200 66 0 11.808387699005378 16.972001304301955 37.08213049601727
201 67 0 5.467702501340863 26.5331863679926 24.254225627052794
202 67 1 14.110162259997328 12.297324014953766 25.58975604686805
203 67 0 17.52568558249405 20.629013521801802 18.67547207557323
204 68 0 41.82343698166361 11.595271007126463 10.830356191882805
205 68 1 17.62085222531414 29.51380771125489 32.385398172577844
206 68 0 19.343903347684854 45.64186831073851 20.779991545038527
207 69 0 38.680994992362166 34.442817735237995 40.10703604328445
208 69 1 48.46324803706385 43.96129542481033 37.850618835554464
209 69 0 37.80641175841552 22.69856915861072 13.971084873530279
210 70 0 10.513465504935454 22.881045274827688 36.02732708187833
211 70 1 25.573378601075916 37.94357480174491 47.481750836266464
212 70 0 10.152989515782245 12.423398777239058 33.39580908453953
213 71 0 39.76420107413378 37.66703873897243 40.87407066039488
214 71 1 48.726381972963566 20.521954013109333 19.244160072947746
215 71 0 16.327501724332336 31.238945027719012 29.89406637222811
216 72 0 40.18764165803852 6.357441572195343 21.47605452731573
217 72 1 29.4166379354586 11.865364965554852 8.859782304381913
218 72 0 40.09159466192691 4.82699458061418 20.40577966532805
219 73 0 9.074747315077454 27.099886862408376 39.78844562669937
220 73 1 20.881285735281423 42.29437095030849 6.623245791838723
221 73 0 15.144782184979075 24.932772574277667 17.080749708090742
222 74 0 31.193300918700462 20.881027649540567 29.147246221261952
223 74 1 22.325496968804487 34.37030011353016 4.805176674843806
224 74 0 28.94832143276376 10.12809613947926 33.36739895713664
225 75 0 26.93928883118106 32.88808930206474 25.478231132079348
226 75 1 6.018060841174963 20.217825902527164 20.571872877359617
227 75 0 13.876204329092806 5.469079256215738 33.37947774471795
228 76 0 11.10841436853543 34.009180762527706 28.79284749169408
229 76 1 31.546165152296208 47.105416853231034 5.849040296010047
230 76 0 40.82936545050478 11.393479271097682 22.168338401399335
231 77 0 18.008724880474187 20.91248185641321 19.84605775634336
232 77 1 10.099110512449911 1.520424437035216 25.61226547661281
233 77 0 35.21039869402236 14.92830124855232 14.275858355624568
234 78 0 4.210187068916273 6.117107022809126 9.521754969840487
235 78 1 4.826208606234891 13.60238344680862 3.5206458001352265
236 78 0 3.632068859834199 36.561785335891514 7.1077428219696515
237 79 0 23.700129970025205 32.59409292092302 22.59769348190901
238 79 1 8.180693053460955 10.455521365141946 21.89202033221202
239 79 0 22.499989597993586 15.93890485570763 35.41117064146323
240 80 0 39.08295670944133 40.674979812985235 10.54067184096829
241 80 1 44.55387304974527 20.374008171948084 43.27629366582228
242 80 0 36.696384497729944 43.11441758996886 39.16019826908048
243 81 0 18.25266012530036 22.621556930634256 20.03264144060342
244 81 1 18.447022396876175 13.206691874875537 24.741347172173462
245 81 0 30.838587880346143 13.714948358680589 25.919491348556967
246 82 0 14.948682074496439 6.333548902512233 3.7997592472635833
247 82 1 47.73491704817587 0.34765271623628413 9.306341799754252
248 82 0 34.38862735410728 3.255168783704143 36.59731963250069
249 83 0 31.543798830240135 43.870277662142314 29.873253064308106
250 83 1 15.437885652137869 27.56891641585724 46.22762776012677
251 83 0 23.79184325790571 16.30742977482926 44.391020920669995
252 84 0 18.032431971227066 9.181059144338848 14.666234182687912
253 84 1 16.030301898419008 42.027117918757384 23.06328722882221
254 84 0 20.893748653240554 22.28226231754533 39.541901156354086
255 85 0 47.41647729018257 47.486692964293155 21.88705476991163
256 85 1 47.814286142087944 39.33954786084287 33.25398781627196
257 85 0 19.969232145563378 17.001682333537374 13.739751474667079
258 86 0 41.55175437851656 19.825440135386216 26.813855377654765
259 86 1 24.749828105977752 38.36036662283948 41.9526519989273
260 86 0 10.708599449553827 24.994496646733722 42.128198177093175
261 87 0 35.466085302529336 4.871671843059064 10.636409129513805
262 87 1 15.417800510403445 4.107945490511972 20.94098583167064
263 87 0 7.490291492475219 23.21960950053821 14.184709657365119
264 88 0 33.35504305714075 8.808297108995392 40.953924906686815
265 88 1 45.95609219773625 19.468720916296707 12.461331946792436
266 88 0 19.738261467828327 23.17639307663297 4.201913032420435
267 89 0 33.74951215490826 23.616461259063563 24.971361707906155
268 89 1 40.05818462420661 35.37688634915822 47.21689552455398
269 89 0 22.393024400499527 42.87310853309377 40.39382074457727
270 90 0 9.101317740780058 30.90258720014809 7.335617077461556
271 90 1 42.85512135348933 6.166612761618366 11.019883114678853
272 90 0 16.496051639348874 17.08545482968734 31.577307391938344
273 91 0 24.77183104319113 20.06623528049927 2.027893109753444
274 91 1 15.292099569979648 4.896274619465673 8.095229993953819
275 91 0 40.65387138976103 9.298556855443678 35.731686994439315
276 92 0 32.861222304376206 14.009720279094827 30.64549446399503
277 92 1 6.698220418198638 35.85350862341501 32.03528069056064
278 92 0 33.238061277987775 26.57123907044788 42.78820478115714
279 93 0 6.4133891050987755 13.393503003439639 29.356643501552313
280 93 1 20.927109540527436 8.925642156298695 6.27497986138729
281 93 0 36.57413469552004 20.459325945540254 35.87987807373169
282 94 0 34.32289666127676 25.54512251155637 22.539238160706432
283 94 1 25.590688868062298 44.01055809004739 36.74422877869761
284 94 0 5.6583599166266545 36.72806358289044 44.0261879459857
285 95 0 29.522030170355976 10.778832788333807 28.952007671260574
286 95 1 7.911837335022009 17.779439021357202 46.15993814140683
287 95 0 37.83232112938259 14.942815904862213 23.33891732848324
288 96 0 26.458996244971416 47.168717204486406 11.000903161564995
289 96 1 13.495145181553903 43.279770071186576 24.397808015763683
290 96 0 38.11128349166049 16.636637481688695 26.17192478065493
291 97 0 17.45407243709092 16.281781772593625 27.19959585831128
292 97 1 21.781749778418558 18.085319765305425 45.0313704252039
293 97 0 33.400463194471236 32.43409220261532 21.11373255082272
294 98 0 26.528630123053766 38.882108233975785 39.159159122784295
295 98 1 17.241573501485338 38.60983894344855 36.64267970822766
296 98 0 9.192163241857413 42.314162364451086 25.1179943308998
297 99 0 25.714555966572192 22.936188237723318 31.409508318627143
298 99 1 31.0767739180702 24.934292564787587 42.64410067614813
299 99 0 38.010188762540025 28.29465196035506 11.751520990787638
300 100 0 32.48391044333698 23.03162424931359 18.10268332652856
301 100 1 3.509750263290587 43.090931346002186 44.96392852636278
302 100 0 5.41461904121602 22.468223337512796 16.653133965744495
303 101 0 14.607878676898384 36.57112059726831 8.794171112848234
304 101 1 41.58285333318113 8.356224775878674 1.8033449247950326
305 101 0 32.20628272942835 15.768699697733313 19.94867958135712
306 102 0 35.383399735265336 17.518772896342853 35.38027113935006
307 102 1 26.044645141112884 24.358813973902063 44.788013922355866
308 102 0 27.362407979147292 37.785629820468905 38.0803848457009
309 103 0 11.139801079272347 30.85674247481497 12.127200205150187
310 103 1 44.04785812953673 2.919283241599319 16.900075009196076
311 103 0 13.522693346770923 19.202751987000962 35.778401919065395
312 104 0 20.272573152751438 7.477950473876696 15.444580644680212
313 104 1 39.86349765365325 7.401085700119266 11.546603428190142
314 104 0 11.368254885348804 29.243053186132343 17.97488431381729
315 105 0 19.912693210365013 36.8913938977596 15.569067645652309
316 105 1 36.278373515823034 40.26757918909671 11.006254084483265
317 105 0 46.04899508012931 15.039056557179453 13.774167168062224
318 106 0 12.604573031509377 22.65610741660023 28.293905284681813
319 106 1 25.683114846224314 42.19264140388978 43.687449076835144
320 106 0 14.201749335950325 33.56751668886184 13.842871009243572
321 107 0 23.41233665515353 20.461190831343675 13.51708300542595
322 107 1 25.78769074176071 36.82591558465714 5.752314529118365
323 107 0 40.03190414681114 36.73747092588275 8.00002039780102
324 108 0 39.023124208738174 25.625970075475934 42.441312084244856
325 108 1 10.426794254420996 26.76268795532362 15.398588166006066
326 108 0 14.133273289990537 28.956865601427182 39.45735221809017
327 109 0 41.470174548479754 33.772084607393 31.21906619712561
328 109 1 45.89698377528777 24.641234617793693 43.338266155196244
329 109 0 28.322483399287083 21.30320047463103 26.232803108535325
330 110 0 5.655743433640073 20.458990820837787 9.815004263201748
331 110 1 23.603352732184412 36.10021069523286 2.989871403660342
332 110 0 25.446874943948913 44.77382208028878 9.851113983786556
