ITEM: TIMESTEP
80
ITEM: NUMBER OF ATOMS
333
ITEM: BOX BOUNDS pp pp pp
0 50.0
0 50.0
0 50.0
ITEM: ATOMS id mol type x y z
0 0 0 27.097478544183815 24.51366407035004 32.446374183760014
1 0 1 26.968930723727578 23.11835756415681 33.01612659553555
2 0 0 26.51315599939046 24.9107815350643 34.395922462762265
3 1 0 26.11253811993982 43.57582854867803 8.422535792613074
4 1 1 26.668096064863335 43.55637675095477 6.716196329180694
5 1 0 25.16451009943026 40.61293234778048 9.010766777914593
6 2 0 40.35822072662135 24.938634775613544 36.41979462134692
7 2 1 38.42725691730456 24.373554947509913 37.4290669107478
8 2 0 35.90533931474122 24.87008988628269 35.24543185517465
9 3 0 26.65540000447352 6.505201590207754 36.03367237413226
10 3 1 28.85308358968464 2.9777334921109566 39.832977025594694
11 3 0 27.058070569718573 7.1303258789102335 37.86200225804242
12 4 0 33.64973166742572 19.143288181223223 25.723576684681838
13 4 1 33.951669232488484 17.88128918229253 23.74229490609782
14 4 0 34.081395250243155 16.19126023932874 24.53933849808559
15 5 0 22.962760042429466 24.741446813444668 40.031029113662825
16 5 1 23.204153932676647 27.256576304328217 45.48696614889039
17 5 0 22.0770710101975 27.6107578666839 39.92028007436452
18 6 0 41.62242210539115 26.99574661011183 10.24117876803955
19 6 1 45.38854785456259 37.85193072755563 9.461086289587062
20 6 0 42.39772135443353 36.05429332257931 11.090522679132508
21 7 0 35.19287594812344 7.27228763296904 38.1326888976225
22 7 1 37.37699446702864 7.419354346550295 39.71130236144915
23 7 0 35.28459282780401 10.352378389358028 38.71091667273917
24 8 0 3.677198094635575 17.325173958276245 13.96490219232618
25 8 1 3.582674607896153 15.209053699109642 9.703430734495882
26 8 0 4.808361260588729 13.873493041364428 9.713089601823235
27 9 0 17.81030066783417 5.696468794562944 19.847756742946405
28 9 1 16.33971584671364 5.194853788999384 17.675841587819434
29 9 0 16.393304463103615 7.71020115310706 20.51520905948328
30 10 0 37.69847816443944 16.05260161396883 22.162411735650963
31 10 1 33.85951054368214 15.815084622017935 10.936742030069777
32 10 0 30.696221438644677 17.920010141367932 10.68094352161967
33 11 0 31.769771162214973 45.55847591836045 13.212285865976575
34 11 1 34.45019669761044 46.42155309215555 13.320899355354452
35 11 0 34.225846521379424 44.94023924236397 14.769503211938712
36 12 0 39.316096806138 38.86831623745887 11.77353020219788
37 12 1 41.80806257897446 37.99815814119537 11.030344709878447
38 12 0 41.940909619638376 36.46073391173276 13.600573797944401
39 13 0 35.090409282693265 27.621933299452113 45.28524280629144
40 13 1 35.68824247066971 25.847188866690693 46.244124476021454
41 13 0 35.379203338470816 25.155217946609813 44.62108640977423
42 14 0 12.232962657308242 28.050565519662864 23.39132378773856
43 14 1 13.420031805483438 29.28588636186666 22.38729356106854
44 14 0 12.84172583488414 27.78148567766396 22.935568321401604
45 15 0 25.72715815679297 21.662821356385724 40.81498905310133
46 15 1 30.676577485687297 21.819372843209933 43.70967759425249
47 15 0 29.533955790168395 21.808866440537095 44.28382873983151
48 16 0 43.69512687341038 35.958457706943044 42.552107612357545
49 16 1 43.662755598371945 36.088224725981526 45.4146372957201
50 16 0 41.070510522239985 36.62444406529136 43.026975653417644
51 17 0 43.61617269846856 21.78602564685307 26.204800824332953
52 17 1 44.69725141595006 23.27581817130852 24.7156972188035
53 17 0 41.55024868011482 24.350426231913637 24.371128041107326
54 18 0 43.28324603364421 13.984201892514934 20.343995855414192
55 18 1 44.28382878915544 13.870059305060318 17.517649235972485
56 18 0 43.23129145370681 11.165568371638484 18.521486926712353
57 19 0 35.29264017725948 12.018169601529555 14.566625569952466
58 19 1 38.105073047893285 12.37420950424407 15.606425138506113
59 19 0 39.1075327330397 14.36157485416007 14.51859557652041
60 20 0 12.019565619516344 43.66548486495625 30.629065589685712
61 20 1 12.82721388947374 45.21724524467704 30.927780082869315
62 20 0 15.853022822165991 45.102164240023036 31.565551463433476
63 21 0 10.648694492659272 42.27017424234229 32.45106829837691
64 21 1 10.405032183400834 43.95032936201966 34.3167597040339
65 21 0 11.470645602009851 41.612899961905605 32.84885579844726
66 22 0 28.861311796783646 18.724284721684512 10.151987593325302
67 22 1 30.76047911933674 18.3351994425697 9.048761998080645
68 22 0 29.032221536158215 17.12149986300616 11.573129842893382
69 23 0 44.506328118235515 12.593603184176784 34.901207317344735
70 23 1 46.24204152255235 11.161113914004943 34.00529006258462
71 23 0 43.74571679369444 10.206170852353514 34.23377978849652
72 24 0 36.38102449763401 30.25529821014585 40.423486667457716
73 24 1 37.94342401816064 31.48371734653581 41.03315986008024
74 24 0 34.95876580429962 31.912861537156996 36.65998425819796
75 25 0 46.50928010321392 35.474047322380365 11.698083928998665
76 25 1 45.43669555695641 35.89803864173988 12.020457272581384
77 25 0 42.7074849862947 35.124819642028214 11.187134924247593
78 26 0 22.656022121473605 14.145102715430484 27.669145238417997
79 26 1 24.302117136624556 13.18764220465186 28.660370756820747
80 26 0 26.164543177288568 12.510799579200683 28.413496267175915
81 27 0 24.728299422592105 12.98808752460943 11.096763136350248
82 27 1 26.056989900093683 10.922675658472922 10.992518009185996
83 27 0 23.415468269604567 10.912569989668913 16.325412532612663
84 28 0 13.007573449902921 22.665867866112436 22.896101936141033
85 28 1 8.95318150202157 26.21598683952356 27.507245743667102
86 28 0 11.519281694628374 25.668391499931264 26.76106584225289
87 29 0 29.82895365506338 33.098435320359464 18.29635307993227
88 29 1 31.73313292220487 35.33627165697528 16.17120427532187
89 29 0 31.764406786042684 32.92199263405354 16.597705692217403
90 30 0 48.14174078321738 16.78162058576339 42.95768794433817
91 30 1 48.06827490421978 14.726733713458795 45.05082161132958
92 30 0 47.96642421944732 16.737285744309958 44.11533793228943
93 31 0 27.766051522505034 4.048347137668236 16.287925819803675
94 31 1 29.408469047024234 3.9774007962531384 17.628232417435978
95 31 0 28.89983423315084 7.615300707935779 18.633408586537595
96 32 0 10.245891159441829 38.630239462525054 10.666652799899891
97 32 1 8.73269422987442 39.08820789083925 9.706278704986685
98 32 0 9.986826339761878 36.84734345061617 9.23313564895264
99 33 0 43.62645914157646 38.77206819995191 21.9771255391446
100 33 1 43.385994332465266 37.52295615447146 19.89444417353428
101 33 0 41.20826936802038 34.939439628199004 22.42324996906218
102 34 0 1.4898194159678169 32.64211689335778 12.058175442144334
103 34 1 1.0639638038084425 34.891057621783645 10.219559931699981
104 34 0 1.2297403484527007 32.717669434418056 11.868680408200051
105 35 0 34.4448868312545 24.088208098140772 38.55842848390824
106 35 1 35.8460144948177 23.511916660989684 41.13248185465247
107 35 0 34.132083269886195 22.610115911577097 37.755985037271664
108 36 0 35.33301675337813 43.89376703125857 44.601943451855426
109 36 1 37.02611317772496 46.54161520162877 46.03128200072654
110 36 0 35.142674544594875 45.31605578092851 42.31455690274702
111 37 0 18.948806371200973 23.954956357196377 31.764639299602155
112 37 1 15.000538101235437 20.389181794188353 29.38973822779256
113 37 0 14.428224758967799 19.819128646586943 27.25958981375532
114 38 0 10.709485708915587 32.71447798852461 25.108907111492286
115 38 1 10.631835415384627 29.81631469091322 19.744237821784967
116 38 0 9.768007575161755 33.040449177959154 20.16356560097816
117 39 0 23.32787786102468 31.68314830850712 16.2703098578528
118 39 1 25.68640349667767 32.38621623484105 15.141202068541626
119 39 0 22.11602987579897 29.748592533257565 3.8288509989870225
120 40 0 21.17540434319493 43.372241728217325 24.45210627993158
121 40 1 22.867060019072017 42.89908645837967 24.30321443328265
122 40 0 24.04571376966912 41.026220550870505 25.97211082601647
123 41 0 36.226658847102804 22.50763078422577 8.58922341615133
124 41 1 32.007822375213095 29.862049893963942 11.525336764142576
125 41 0 34.457687138718406 22.598545330156973 10.664094516453549
126 42 0 23.462706828312307 45.396078141595595 31.317399076880232
127 42 1 23.697668283970025 47.0865494410167 30.185272855555702
128 42 0 25.435922380065076 47.08020199290628 31.12166336330488
129 43 0 8.000487424592366 21.04754952110111 18.77924284085311
130 43 1 6.099869820393796 20.55561179197471 15.999818155717621
131 43 0 8.539569345420253 19.137460921901983 18.03759768569838
132 44 0 10.14085278608572 20.890087409956653 40.70549590738477
133 44 1 9.486129130325105 21.34670756208983 43.92382650271614
134 44 0 9.019996941873176 23.662974069058695 44.24010427835306
135 45 0 29.263464708949503 4.977589572139442 2.6694376185605626
136 45 1 30.043025379136722 3.948887128845719 1.5495397085957974
137 45 0 29.693901419740712 6.520566003163616 1.620237193181172
138 46 0 3.7931721097531597 8.73234908307597 27.339544043930555
139 46 1 3.3023709679620334 8.99041113610802 29.564077022561932
140 46 0 4.250589095948998 14.453541400312673 31.402107693573488
141 47 0 39.957007112012406 10.114744667585787 38.980790547266054
142 47 1 44.46770699605397 6.217334282122547 38.60381413107247
143 47 0 42.4088011476217 6.214344829968539 38.08056995058665
144 48 0 4.905993819363721 19.039216756476087 5.79680552622745
145 48 1 4.172111468755565 17.64656322866848 3.855329915285
146 48 0 6.829079333512425 17.84607009597676 4.993749660161797
147 49 0 17.030239793443318 22.343720220195475 36.76314621035829
148 49 1 15.284123231375801 20.611014140797106 39.23743031396958
149 49 0 17.642298937098996 22.51160818928166 39.95043230305804
150 50 0 8.678831530321698 46.945888465923375 12.7368293523145
151 50 1 7.994876690871592 45.98094293754524 13.21531903965091
152 50 0 11.068550803112862 44.21604882248567 15.181716983343689
153 51 0 21.448187906625517 33.664761387266445 12.949756671359893
154 51 1 19.34850794872505 35.32485656692224 12.4419903828447
155 51 0 17.965370439800857 34.14642996782902 12.68494440073988
156 52 0 46.417951493818755 29.20411672144999 40.56345433566809
157 52 1 46.85551605674333 30.955830169733193 42.013076190077875
158 52 0 46.930193570449994 32.12653006363719 41.156881443404956
159 53 0 9.617080471717918 18.520118893761744 10.324948846998053
160 53 1 6.772104297860528 16.0608530813022 9.552145891629483
161 53 0 7.678627655192791 14.922364992174687 11.289481776208573
162 54 0 16.27191989817619 32.57322411932107 32.046012648128816
163 54 1 15.746893942801618 31.477001977248598 30.29540921574611
164 54 0 14.965266900541756 21.39809253579291 31.262412325963233
165 55 0 11.822228238378427 26.155207158277943 17.73116639093242
166 55 1 11.14517392886748 27.430435053666127 17.78899081640361
167 55 0 12.148734875808099 26.962779401492664 19.509298338436373
168 56 0 6.690810613181316 16.611676441117478 24.699957454407322
169 56 1 5.847233200559345 14.142683206177 23.26432172516877
170 56 0 5.637058312325333 14.187783993419544 24.781834868642758
171 57 0 15.200510892866495 16.811392573379454 34.12871192246458
172 57 1 14.097269384834995 14.00285305322274 34.37756196138023
173 57 0 15.886446639623308 16.316312423253688 32.34118919717476
174 58 0 14.282198354478062 28.572384726998727 41.65415774963856
175 58 1 13.748879170399437 28.992691146050586 46.734119516232155
176 58 0 14.50334806107509 27.392874797580802 41.721023628019644
177 59 0 22.990254121105405 20.489432678833595 32.03410970648807
178 59 1 13.604132224682939 10.058665436541638 29.58603810537098
179 59 0 14.577018146339485 11.079687523924765 30.97159969841788
180 60 0 25.397345075307793 45.33791137881923 6.148504847192047
181 60 1 27.049832695209474 45.63446018960933 5.102426001617885
182 60 0 18.63281389310593 35.35585123343795 17.570835533616062
183 61 0 20.884573694764924 21.113896118668862 38.73763838309783
184 61 1 15.431967378900048 17.212455517806365 35.897794599749695
185 61 0 14.728657990431406 18.01989084256337 34.07776821684352
186 62 0 10.882403508254045 47.94147396556496 41.15674359000898
187 62 1 8.96736215645564 48.16069192897603 42.02978686273436
188 62 0 10.373156938517248 47.046862931416534 40.66546478167207
189 63 0 44.916529956082044 8.517262642474174 13.821448703558397
190 63 1 44.611976861643086 6.272417001464388 11.142023916173088
191 63 0 42.743121400450924 9.052272372598086 11.139669250437905
192 64 0 31.322380013238018 16.885599578439773 28.998962087499596
193 64 1 41.51147093434779 10.302246145278945 31.462434348242127
194 64 0 40.480110355924204 8.964268404702851 32.17767959104223
195 65 0 5.71839560324286 39.548386500355875 32.419964164472766
196 65 1 5.381448837151935 42.329586992577134 34.63848663471693
197 65 0 6.6695598307447845 40.72069599057345 34.009660960607214
198 66 0 21.742827407441087 22.884856650944187 44.88548578198937
199 66 1 22.31483717272908 20.433747429510248 46.67127307390439
200 66 0 20.979407624608147 19.719952318543783 45.593189742045446
201 67 0 15.943175468231422 7.252891503952506 14.331677161610816
202 67 1 17.510086947680865 2.815879785532136 10.093687303255692
203 67 0 17.16046465876547 6.788188809402991 13.810541705623015
204 68 0 23.28262186940937 31.248972847435283 35.29223222060538
205 68 1 25.213598110053468 39.20739736685504 48.53343127035637
206 68 0 21.13119090034591 34.68567633262438 36.084098871433945
207 69 0 46.03030647473613 41.47353996858302 37.50634494615866
208 69 1 46.51053621579197 42.727932917498755 36.78772560552764
209 69 0 36.148170320932806 44.600517634717406 35.628529099002996
210 70 0 22.580359432797508 34.631735462823066 45.13096840623907
211 70 1 24.031394751982806 35.884759660582546 46.188455326295895
212 70 0 22.756654069018964 33.612314621214196 44.98630883622882
213 71 0 46.15595761339187 23.486863306321478 22.910199260890334
214 71 1 46.604452905173396 21.908866256819262 20.86775831868735
215 71 0 43.68890191935058 22.693904050323187 21.5808378747819
216 72 0 31.63901601527852 10.72151174481484 11.46250087509211
217 72 1 30.477240827646757 11.24226222913958 10.05464616295107
218 72 0 31.642475608222338 10.396679921196712 11.255160501416606
219 73 0 18.981361169251876 39.48642731249563 11.757098533996498
220 73 1 19.99140984157104 40.65188950106635 8.850369119300018
221 73 0 19.52535088183097 38.847485943357505 9.564726651334905
222 74 0 23.941430167794916 31.42673813218726 9.596491316999254
223 74 1 23.112807491651196 32.446364661693885 7.498429926387944
224 74 0 23.603604335319492 30.365336634047843 9.823446902541454
225 75 0 9.567522261550073 15.601522575596498 17.143653268267318
226 75 1 7.528593820301291 19.603726391194588 21.051898497632642
227 75 0 8.053374066787542 18.144061178879873 22.679971325586873
228 76 0 32.36783685629429 21.573416362282686 27.776274591234714
229 76 1 35.526296111735164 11.892228845326132 34.582991416018636
230 76 0 35.02330695469765 19.646701402866796 27.107300030225435
231 77 0 12.273195622929359 5.177312079762626 24.269503692542123
232 77 1 11.77472150515354 3.173167236218964 24.74609956985707
233 77 0 14.136024419268587 4.219266596753211 23.711286574491897
234 78 0 5.650967852360335 11.45599987136465 5.463586725141482
235 78 1 5.972537069412596 12.788570277106466 4.644716990941938
236 78 0 5.7126723117981815 15.408717857805199 4.864256943361537
237 79 0 11.06765681799495 14.039906172944896 22.479099149612793
238 79 1 9.688696975368128 11.85882182040713 22.599434317519837
239 79 0 11.091667304123597 12.138066280071486 24.146014812082484
240 80 0 43.48181837478836 24.11806873394074 38.4565520842592
241 80 1 43.88097001271084 22.565930703619294 41.3907354709367
242 80 0 43.11381502953031 24.719695610700455 41.4381995817391
243 81 0 18.64269326534248 15.28648247840496 23.892787194437553
244 81 1 18.542404111087347 14.073094105890803 24.750120405382546
245 81 0 16.783696593043107 16.303851450295944 25.11530083505741
246 82 0 41.48766468013532 1.5300513924453698 9.139865680366361
247 82 1 43.69585582569091 1.193851661868005 9.730537351333437
248 82 0 34.672912697295416 3.262297403542788 8.31244427217007
249 83 0 19.60899165416505 28.036090047176213 39.170244611295274
250 83 1 20.398502275082084 25.501524573588572 36.761829681336735
251 83 0 29.918053531685793 32.200820079273086 26.565491400432144
252 84 0 16.50095222081121 36.504933924675534 22.451227528255995
253 84 1 16.378618209412817 39.35626927387366 23.46950379069353
254 84 0 16.85245661384675 37.77062416299918 25.3027887657911
255 85 0 46.03350448098223 39.660887964083 30.54473758820763
256 85 1 44.93195067637745 38.05747673058218 31.570217163437786
257 85 0 43.02163815148632 36.140987629479895 29.972039760179396
258 86 0 26.730199019869577 35.11415114239265 39.70923303621333
259 86 1 24.903451296992873 36.74775103270699 41.18994368342251
260 86 0 23.069540242573485 35.51355559839288 41.43426377555178
261 87 0 18.268084407059607 4.922807162587973 19.080009454858523
262 87 1 16.031204878075435 5.108753106894426 20.070900643704704
263 87 0 14.895582035310586 7.15106398849925 19.498722204428834
264 88 0 38.996895471441555 28.506081533405006 15.379334857212665
265 88 1 43.40673118446841 20.44908758656764 13.467677742633292
266 88 0 41.25153660268471 20.182165769688538 12.248185863153296
267 89 0 40.340241966771586 32.80045178210972 43.603303791210415
268 89 1 39.4378065274921 34.79530011409695 45.70750851989175
269 89 0 37.40883223188299 35.89800623462906 45.29041836679677
270 90 0 37.06917071651991 10.08101680310988 11.282339972133265
271 90 1 39.7438660375269 8.001949791518433 11.88334266774639
272 90 0 37.711244487014255 8.71319117884956 13.902328291191681
273 91 0 18.15221845120302 7.7602086804593124 7.791561018445731
274 91 1 17.699174101573487 6.083687074870297 8.76793858374581
275 91 0 21.645798363119535 6.6435321879192095 9.927553378415046
276 92 0 14.538246034533056 29.361687093204186 30.51820809319633
277 92 1 10.439689629261347 33.2358532843738 31.91518101119024
278 92 0 12.576474113157667 32.775102531480755 32.90850439469962
279 93 0 19.29421683669533 10.033199155140936 10.887580433289536
280 93 1 20.992557882779035 9.741853039523566 8.95798129843319
281 93 0 22.64638431121857 10.761036145049124 11.421038467894466
282 94 0 28.307062692681413 41.39151108943381 38.12748427274353
283 94 1 25.452565692626713 42.753241640092156 36.98844422150017
284 94 0 23.05411370304267 42.22151549808782 37.69209159047873
285 95 0 12.340144630783147 16.569583578142197 42.66667150634623
286 95 1 10.535613486923804 17.28145625785583 44.12225915951055
287 95 0 13.035959611459688 17.123576845729946 42.226787631140304
288 96 0 16.52912191324363 42.96384652157182 22.24204605662088
289 96 1 15.406898606854838 42.10222698415788 23.820397542730834
290 96 0 17.451631505339375 39.596119438499144 24.124403938329298
291 97 0 29.93658754611198 4.244611685376963 8.373186965901702
292 97 1 31.466618221543957 2.835511562081272 5.792232685260194
293 97 0 31.60220507223914 5.859902937777263 7.695388707092865
294 98 0 18.846525608217167 38.79489584926196 36.74722059020087
295 98 1 17.286841626642783 38.803385549682986 36.19536667848482
296 98 0 16.14998610052458 39.27394687112082 34.69300944738115
297 99 0 40.64929766297757 11.441914638609244 44.74553486482093
298 99 1 43.87506587028385 8.12360122752674 46.734923074415
299 99 0 41.901533861621495 11.899835881880653 43.0085047329838
300 100 0 7.646196071880852 39.492545837235575 40.11890946305084
301 100 1 5.095585388868026 41.00958273842749 42.14141404875529
302 100 0 4.878890379302928 39.3088134376327 39.79728406830288
303 101 0 40.12252737878958 20.865462939150348 15.076566930563837
304 101 1 48.496406120162845 40.41291671307436 44.314789059856054
305 101 0 43.94157399867925 20.340280080393104 18.794497988435076
306 102 0 27.73117055494142 23.610771031170774 42.906900544257326
307 102 1 26.571039933136106 24.68411385657179 43.99221742541045
308 102 0 26.59222395762644 26.47999474971308 43.29365978953065
309 103 0 38.24894034794452 7.431853349237214 16.824601723189755
310 103 1 40.795811611703236 5.136570911015557 17.45754025277859
311 103 0 38.343272621595574 6.16482883905046 18.819212265940315
312 104 0 35.574170201640506 8.159964712638184 12.441757346517322
313 104 1 37.48906672332519 8.50321218635457 12.091259101449303
314 104 0 35.11684716714459 10.510828297334626 12.696579876735202
315 105 0 33.89523695984503 38.80018605385915 11.866797547057459
316 105 1 35.961910628193195 38.81698555827539 11.373236201223254
317 105 0 37.157413832769095 36.347988939840626 11.585645353870753
318 106 0 20.420905344377104 34.231754197291174 37.351195695568805
319 106 1 23.723329351531923 39.59695454008348 40.66249094515046
320 106 0 23.07200156985855 39.52010097066271 38.214419859777635
321 107 0 25.887450796658694 34.110624101303756 7.117150712561334
322 107 1 26.370478254704643 36.003276668905386 6.251372953081318
323 107 0 28.236034716015823 36.25154902741804 6.416581123012913
324 108 0 15.926538436624206 25.00032525173948 19.489227394185235
325 108 1 13.699543931520905 24.66564339800198 17.132236666992434
326 108 0 13.285233761254863 25.41562963328726 19.464666793695425
327 109 0 44.521646054465755 26.171167942240483 40.59662194961501
328 109 1 44.78397170301787 24.91400633514259 41.87539223303846
329 109 0 42.99128109685645 24.44183050587568 40.26604934022633
330 110 0 20.91571581328964 34.01092093890898 4.282160668286766
331 110 1 22.780732862174062 35.72660730585761 3.6685573552392072
332 110 0 23.28003927528435 37.20176078846975 4.515548652329893
