ITEM: TIMESTEP
80
ITEM: NUMBER OF ATOMS
66
ITEM: BOX BOUNDS pp pp pp
0 50.0
0 50.0
0 50.0
ITEM: ATOMS id mol type x y z
0 0 0 27.10980858918197 24.030286401005252 32.46180142738056
1 0 1 26.962609668841747 23.20257542533213 33.04769368020413
2 0 0 26.714092126130144 23.999959292112464 33.81297500520089
3 1 0 26.353900654568402 43.73993875735432 7.815440274958947
4 1 1 26.594714711412827 43.43395751951307 6.845857321011927
5 1 0 26.095654104344778 42.390650953943094 7.555785283832695
6 2 0 38.2648613551078 25.52268473296827 38.52446541806337
7 2 1 38.04745518998467 24.648208230321856 37.81772523923435
8 2 0 37.13370716000809 24.788488561404108 36.90907803379614
9 3 0 17.170746466197297 34.123606113170815 24.625659735784136
10 3 1 16.187589344846725 34.82353686227578 24.12149965076445
11 3 0 16.28358296385462 33.68568819729459 24.192602934147168
12 4 0 33.79557760196699 18.535854873898558 24.757258000341103
13 4 1 33.94485127603818 17.87881997896361 23.82396360167748
14 4 0 34.02938630642926 16.86691502570976 24.210760077234276
15 5 0 17.73864256423702 18.86798048350803 25.35387550808168
16 5 1 17.05908925134754 19.468949518605477 26.05504860138177
17 5 0 17.120664566897307 20.53466841529296 25.470729688534497
18 6 0 12.470424645404078 21.103868857965004 15.380636277065351
19 6 1 12.292422609482282 21.549055898999367 14.412460006774538
20 6 0 11.87570336009684 20.744195074368605 15.032512899067713
21 7 0 36.31741134011025 7.273719605193906 38.93317304022307
22 7 1 37.22691581885659 7.527403473677012 39.62239741095408
23 7 0 36.56215763826459 8.623717304810054 39.33182196559113
24 8 0 6.253465719824092 15.07126681319014 8.905785818114785
25 8 1 5.203421986524331 14.605609875598443 8.22415950688439
26 8 0 5.48801883486 13.662775010643875 8.528053382348677
27 9 0 26.41451216208676 12.624661743249561 28.050025786164486
28 9 1 26.649632339908763 13.59105971088878 27.705551783850936
29 9 0 25.8827181503977 14.231601278051537 28.347008686256597
30 10 0 33.64640223314732 15.60079047146301 10.451158268254845
31 10 1 34.39839026989839 14.75607151241877 10.76777735402419
32 10 0 34.2942845650179 14.203607498976757 11.853392726491865
33 11 0 33.193422289272576 46.048874374340656 13.2368743286289
34 11 1 34.350833716989854 46.35022156708031 13.357560628902284
35 11 0 34.39186444366752 45.59189424435211 14.157381054020128
36 12 0 24.935314386451225 47.98778572577805 36.88566121582296
37 12 1 25.360434857075973 47.71676877600181 37.83057050853856
38 12 0 25.057407762500503 46.63800955129287 37.06644622766876
39 13 0 35.36172187249461 26.865210988838324 45.75480456514931
40 13 1 35.66228710743711 25.8823479877191 46.1751032496188
41 13 0 35.509499170927306 25.357281075670503 45.25671203683382
42 14 0 12.60845108855114 28.75912827233913 23.050429789726078
43 14 1 13.368884807668062 29.217191480685212 22.428875488633025
44 14 0 13.257701308751448 28.191029739047295 22.582962085947763
45 15 0 31.701897693871246 22.48733256651117 43.272110860985244
46 15 1 31.701795714072418 21.95617547936941 44.17891195862344
47 15 0 30.672543621790496 21.85721387021552 44.358641424395834
48 16 0 43.87480275696737 37.19550788029272 44.28181512835547
49 16 1 43.628297011390806 36.73544908085544 45.34922449195987
50 16 0 42.60819839675694 36.8227075301594 44.56528736622595
51 17 0 24.073888173899537 38.79816853298267 42.921167344973526
52 17 1 23.62046699817109 39.94485391553836 42.97838680920831
53 17 0 22.935036444661442 39.86136580628134 42.02093777464818
54 18 0 39.56834675652481 4.785836943917208 18.3067209892574
55 18 1 40.56760292884847 3.7447229978849323 18.611081508361305
56 18 0 40.62808711023832 3.729965146457985 19.629354683665806
57 19 0 36.87491938654706 12.241936976094635 15.135204728010047
58 19 1 38.039926153125045 12.422611555678643 15.538217501377808
59 19 0 38.56612548283574 13.356716487355083 15.0525658626284
60 20 0 11.952790034321353 44.111395398465945 30.668667864695525
61 20 1 12.502923357488429 44.96914267808882 30.913968656037383
62 20 0 13.333238224781628 44.32502657203737 31.244511792446577
63 21 0 10.435221699836816 43.14207256316343 33.30854364521504
64 21 1 10.477495052484375 43.79915561666893 34.23682132090061
65 21 0 11.023640461976582 42.82894230360151 33.782541517897656
