ITEM: TIMESTEP
88
ITEM: NUMBER OF ATOMS
66
ITEM: BOX BOUNDS pp pp pp
0 50.0
0 50.0
0 50.0
ITEM: ATOMS id mol type x y z
0 0 0 27.191380724477007 23.741912422019865 32.21332589743888
1 0 1 26.95998019155487 23.24269834958524 33.052548111102006
2 0 0 26.67452992572374 23.64647736371778 33.9838047291669
3 1 0 26.56756937371955 44.21241284269002 7.531464089073956
4 1 1 26.57060139185905 43.41120857925537 6.901564904397655
5 1 0 26.267699986792586 42.28212458648179 6.9483531227974735
6 2 0 38.114219358825935 25.51579378444496 38.358424118935815
7 2 1 38.04948427648449 24.639503368585142 37.8151513710009
8 2 0 37.25223283347764 24.93468588888653 37.11575942730336
9 3 0 17.241031531327796 35.10027561007476 24.64069946732563
10 3 1 16.232304362638864 34.7425598921097 24.145440033388255
11 3 0 15.498921775670606 34.006663938906456 23.795097731102175
12 4 0 33.80638909235043 18.514974224896445 24.65150373300425
13 4 1 33.94419028799783 17.87723608352419 23.834687204747663
14 4 0 34.029349535599486 16.913316135795938 24.144898892758853
15 5 0 17.66099750572087 18.804425730608077 25.495460066366466
16 5 1 17.069674191184333 19.476654762058256 26.03618716836591
17 5 0 17.02888748950389 20.474857621490997 25.630968146913606
18 6 0 13.080146901670952 21.877407990652014 15.104924293746048
19 6 1 12.281526187751066 21.49073820825924 14.486914340735924
20 6 0 11.440335236885742 20.903716960174396 14.116877294551573
21 7 0 36.644532199080764 6.762711319537074 39.080898698546584
22 7 1 37.17376248567417 7.554906794733533 39.58915833142462
23 7 0 37.08550079279394 8.694645164398379 39.715930789526624
24 8 0 6.021034970104992 15.272092254289877 8.721033903008758
25 8 1 5.233691711562103 14.596724846120654 8.246294353066492
26 8 0 5.236087053263475 13.604064650611512 8.358605502548613
27 9 0 26.503696721329902 12.626156091525408 27.965770677016344
28 9 1 26.637067028879155 13.589176896984343 27.717628466925156
29 9 0 25.994414296729843 14.25996747357529 28.238118372674155
30 10 0 33.65105321003142 15.468755259416335 10.667061319433522
31 10 1 34.406986208520195 14.752178406574536 10.761519983136289
32 10 0 34.15061184770687 14.398881271559066 11.735633516218927
33 11 0 33.3028402570251 46.29560603500367 13.022512770130652
34 11 1 34.32514348725533 46.32639744658148 13.372613472374038
35 11 0 34.69359211793112 45.72638805533825 14.130978712471016
36 12 0 25.06405747006595 48.52047213617062 37.21560066860782
37 12 1 25.335059806623658 47.690826360976764 37.771151469919936
38 12 0 25.33473645991727 46.520617327878 37.68708821566816
39 13 0 35.415616301552475 26.87813572174066 45.960196748974724
40 13 1 35.65503536363398 25.890407127742687 46.15361961648317
41 13 0 35.5742499804227 25.21814362758239 45.39681861009328
42 14 0 12.54624010385995 29.549408744375746 23.046733188083664
43 14 1 13.33478369174043 29.1583524283406 22.459174361022274
44 14 0 13.864445083386878 28.340293047517743 22.10128644791094
45 15 0 31.799267622460565 22.464345922850473 43.310243505035096
46 15 1 31.69166469036444 21.960207972775983 44.171773758996565
47 15 0 30.734371119016906 21.812902869784374 44.433607859731026
48 16 0 44.43645323606643 37.15368491300798 44.69719060922268
49 16 1 43.601317403992866 36.755374354593634 45.282476235492695
50 16 0 42.478252087988444 36.54576500579717 45.21789125507578
51 17 0 24.10892724072845 38.960918593017865 43.06117264102458
52 17 1 23.61710058877635 39.92451023029794 42.962250513481145
53 17 0 22.953819958075968 40.0239180518719 42.13926399671716
54 18 0 39.75272990862823 4.592846414540707 18.344668680045242
55 18 1 40.55496710508826 3.7580744366924184 18.61129949613292
56 18 0 40.645955683968275 3.7090874963146767 19.58800028537396
57 19 0 37.040321087010774 12.346333502198851 15.130765572356799
58 19 1 38.038473455154666 12.421497745745896 15.538437009738086
59 19 0 38.42544084338351 13.269355352132582 15.055241478738992
60 20 0 11.782277319355194 44.314524523439125 30.601337991522378
61 20 1 12.509576020684795 44.94044410058621 30.914563758847322
62 20 0 13.410297379767579 44.58876744989912 31.28130892955993
63 21 0 9.742575451073956 44.000202270681065 33.39669619614137
64 21 1 10.500195785066163 43.7200814113417 34.169945686873284
65 21 0 11.340023791792465 43.22836178706992 34.78543047253042
