ITEM: TIMESTEP
89
ITEM: NUMBER OF ATOMS
333
ITEM: BOX BOUNDS pp pp pp
0 50.0
0 50.0
0 50.0
ITEM: ATOMS id mol type x y z
0 0 0 27.091815740696276 24.334347106211375 32.48267016344766
1 0 1 26.96404045925621 23.151602781330705 33.029602118180776
2 0 0 26.59707840511762 24.55817264498382 34.14400500626743
3 1 0 26.202440797723877 43.60325786954228 8.169858814947766
4 1 1 26.63970932876623 43.51394506266402 6.764330764051263
5 1 0 25.54031542471252 41.34427957877299 8.433385385834368
6 2 0 39.989884179664614 24.83262727281856 36.60725658563212
7 2 1 38.41305903256505 24.387426761284765 37.38534337923175
8 2 0 36.501006853405116 24.754208095560326 35.757230793020476
9 3 0 27.248710019040256 5.551524445321763 37.058158536866266
10 3 1 28.78666911525409 3.1050440271634967 39.73660421204239
11 3 0 27.52738665166521 6.047030137498309 38.37948224561305
12 4 0 33.70863457833288 18.89820466954099 25.33546205003554
13 4 1 33.94926234820643 17.879756263758566 23.774730905171037
14 4 0 34.060995402316415 16.460872685725903 24.40847132986514
15 5 0 23.02793911020352 25.431386359441507 41.52202801378205
16 5 1 23.18099260902213 27.219591663483847 45.299811927880114
17 5 0 22.382189385287365 27.512816184314623 41.42388059003938
18 6 0 42.74949704725771 30.259181186177525 10.009904800543428
19 6 1 45.273206264377905 37.62153268681371 9.50030495022424
20 6 0 43.11595876104676 36.4761573718991 10.697280453587284
21 7 0 35.65139520735525 7.293963943259928 38.462561873649136
22 7 1 37.31639922005911 7.462412054699458 39.6753600438701
23 7 0 35.79556054349468 9.641752092645925 38.95615389897315
24 8 0 3.6541196710348522 16.7683963785282 12.847412691077992
25 8 1 3.5960975835824263 15.230687279658442 9.7730144909467
26 8 0 4.617505291899709 14.084326439134129 9.717297615847075
27 9 0 17.506557694084865 5.5751501182075955 19.397974898148213
28 9 1 16.357582690150423 5.239633594892603 17.76073153865443
29 9 0 16.37485596567093 7.099296657473263 19.821620073096685
30 10 0 36.53110301709286 15.986303261462165 18.771991230284637
31 10 1 33.88310823935095 15.851659881856106 11.142861111079828
32 10 0 31.48555769908237 17.403287345234872 10.767096653104655
33 11 0 32.34767580287798 45.748989804250584 13.231118001759842
34 11 1 34.410874286759054 46.39326260353848 13.33547586984707
35 11 0 34.27710052948349 45.2023934067864 14.51745406363568
36 12 0 39.84767592225381 38.6829458407404 11.614571724838742
37 12 1 41.77668425367551 37.988247304520236 11.076126172540505
38 12 0 41.91130473047185 36.80378345690975 13.027021922230238
39 13 0 35.19826829696906 27.31051658325567 45.46439168794299
40 13 1 35.6783465159822 25.860838447996834 46.21723778634209
41 13 0 35.42969253025414 25.24830083032276 44.87227341480558
42 14 0 12.412100477640237 28.290048629078264 23.236348752154726
43 14 1 13.4013485700729 29.259169133781917 22.403622825140094
44 14 0 12.961976023345082 27.96947634252607 22.82975904945837
45 15 0 27.081057000497093 21.70557326584734 41.60387761076628
46 15 1 30.585011234999815 21.81654944478486 43.66023280318352
47 15 0 29.64524839768533 21.81108024384047 44.28606284329809
48 16 0 43.697675295858375 35.98417164111659 43.171089712367205
49 16 1 43.62418347976183 36.09455442458332 45.34007309201473
50 16 0 41.68545256651744 36.49758540153594 43.60101371177286
51 17 0 43.83066315315549 22.074132165011537 25.915829105832135
52 17 1 44.63798273670896 23.274567080407117 24.727943870991208
53 17 0 42.28650200854459 24.100234084792586 24.450700180326024
54 18 0 43.50668349789591 13.963124445587411 19.715930305456595
55 18 1 44.255026304140976 13.83349369827717 17.571233791140802
56 18 0 43.468747105903816 11.771698612774502 18.292227440401547
57 19 0 35.92465940222161 12.101015655086002 14.798080867427759
58 19 1 38.07846134089874 12.394107362730857 15.57836785213585
59 19 0 38.90127592837861 13.96055598497775 14.73624132741245
60 20 0 12.14952474995199 43.898662386459144 30.675773927700877
61 20 1 12.86203155408106 45.20126381874972 30.933904666024986
62 20 0 15.166228487695678 45.124846144417454 31.42050805923513
63 21 0 10.581273876390409 42.61911643332573 32.81248367193171
64 21 1 10.423149986723471 43.89658667955142 34.273136700955696
65 21 0 11.248082301756058 42.12375676186949 33.18573184017101
66 22 0 29.20649012024313 18.671048656469136 9.934557574590997
67 22 1 30.713470872412 18.3213129148559 9.09916891159042
68 22 0 29.439687633145343 17.394887725499142 10.990391815479708
69 23 0 44.8565433115293 12.320857936899387 34.72616638398359
70 23 1 46.18723307178262 11.166195814322752 34.01946748892048
71 23 0 44.2725784217871 10.397648777413176 34.1820327420612
72 24 0 36.65243182300656 30.45612294816452 40.54392025093304
73 24 1 37.87630645469603 31.478287175414035 40.95224624169419
74 24 0 35.76119744883914 31.798904495100114 37.8340810852409
75 25 0 46.4233329628282 35.485551700455005 11.70390328952032
76 25 1 45.40409411841881 35.886945710633164 12.008541731122799
77 25 0 43.31542351498766 35.29275282009961 11.368962008476466
78 26 0 22.96535955246221 13.970468049599603 27.83760301486158
79 26 1 24.30286231970427 13.190950499633763 28.64822424160546
80 26 0 25.843315273266914 12.632493672350565 28.43940014774399
81 27 0 24.991766062858833 12.57899408506659 11.075524955576443
82 27 1 25.995141770064293 10.94793829057842 11.085612883792809
83 27 0 24.14137900116308 10.917469474247712 14.85724725904296
84 28 0 11.859207345656449 23.671442561776214 24.202214803234117
85 28 1 9.057744603634578 26.145644507168633 27.41544690801205
86 28 0 10.994603265541699 25.788277127797617 26.92376175116272
87 29 0 30.282867385191196 33.64175123528005 17.787911660513366
88 29 1 31.704365741437545 35.27270060229178 16.20891652223188
89 29 0 31.7707876056461 33.39583407553329 16.50279838550352
90 30 0 48.12938122005004 16.317066451066253 43.40368211510528
91 30 1 48.068277631463694 14.77796077444939 45.010357225428294
92 30 0 47.97875408681176 16.382214223324105 44.31677718036594
93 31 0 28.061771263994405 4.034234813414324 16.528724706248127
94 31 1 29.382220236615755 4.0341317315021135 17.62864998405673
95 31 0 29.02409290056686 6.721708900013019 18.385937716513435
96 32 0 10.007525649000748 38.722847334693554 10.529325215066244
97 32 1 8.764327013307343 39.05361380392772 9.709294765471842
98 32 0 9.719071154897534 37.308231236918274 9.322196113682253
99 33 0 43.57966095858699 38.525331674343406 21.562883807826836
100 33 1 43.354402156860964 37.49740175950144 19.960352096753475
101 33 0 41.760543258475145 35.59504902466513 21.782986241661582
102 34 0 1.418418288291168 33.14253998376278 11.66119506625531
103 34 1 1.0721832151661992 34.8316844090949 10.266529191128422
104 34 0 1.16962166808927 33.16721412109672 11.514152096864937
105 35 0 34.75297570258594 23.97761474311708 39.12674163926263
106 35 1 35.80034149037063 23.505537646685152 41.045031133867184
107 35 0 34.5546085135835 22.822662279480326 38.58700405108643
108 36 0 35.73011429695957 44.510558253988634 44.942413751868855
109 36 1 36.97132647203858 46.483413289584654 45.95105298471642
110 36 0 35.622163601039745 45.63049935686023 43.25775214127996
111 37 0 17.864598796966494 22.975635982410008 31.107556142281084
112 37 1 15.060571707477022 20.442782591426745 29.405131985735792
113 37 0 14.551895553971395 19.940835513841375 27.670334801518692
114 38 0 10.687050363760065 31.91743198588043 23.627251988810148
115 38 1 10.620720824640655 29.91268070427384 19.842702788123194
116 38 0 9.968264684918118 32.29389295499443 20.06785892373064
117 39 0 23.822920251227504 31.82776264644398 16.008858651499025
118 39 1 25.588264326974684 32.327392610740056 14.943474880842276
119 39 0 23.191198180758388 30.54534323195273 7.254029205657487
120 40 0 21.43055702738511 43.293915153915606 24.437644742106166
121 40 1 22.867243930445426 42.87882383016692 24.32641320983265
122 40 0 23.78764266621887 41.42874136004722 25.61537206845922
123 41 0 34.998686580692606 24.64300504007324 9.445320456949158
124 41 1 32.1278902408814 29.59964817312198 11.456743645589686
125 41 0 33.76459406008738 24.6615675492982 10.90546675427776
126 42 0 23.493839039167046 45.688889001683314 31.11617368863169
127 42 1 23.71381705054498 47.06758039992451 30.208046749926396
128 42 0 25.14641502048469 47.090921745146446 30.958516157723434
129 43 0 7.5528476453862865 20.940842224445507 18.131366386642433
130 43 1 6.163774497877261 20.541831248684378 16.070629958956186
131 43 0 7.964693386942173 19.464732170992495 17.55223539865879
132 44 0 9.987296942789474 21.00010115080331 41.4573960324683
133 44 1 9.48993128543792 21.368363925913677 43.88100359610803
134 44 0 9.112574747040883 23.206897079129824 44.17336304570389
135 45 0 29.3652472189274 4.8023606501679055 2.531554995434076
136 45 1 30.031649427657804 3.9928791610148884 1.5599400794548157
137 45 0 29.774034204978715 5.9919981121281705 1.5914129133398711
138 46 0 3.7008788845586915 8.793000233978288 27.770227840774492
139 46 1 3.324336009133182 9.080974049159337 29.568929210632714
140 46 0 3.991213285601093 12.953396366730203 30.893246525638013
141 47 0 41.19888382605217 9.0434080101334 38.87765407933987
142 47 1 44.367585904004194 6.285505451080153 38.605027903570395
143 47 0 42.76889908283847 6.194912355392498 38.16429751504887
144 48 0 4.7454406083554845 18.7649916865657 5.4090932083191445
145 48 1 4.21817343146657 17.6668668473669 3.8955317590667895
146 48 0 6.252536308317965 17.795688502453203 4.738082089034413
147 49 0 16.614654306585006 21.931910774633543 37.34668909715739
148 49 1 15.343373729810374 20.663618538081913 39.21073547046563
149 49 0 17.109926755466248 22.081993587952404 39.794510087258146
150 50 0 8.614451221293834 46.8698005712425 12.771922848847034
151 50 1 8.047067168068876 45.95807614937584 13.243918252068013
152 50 0 10.297880478572068 44.65802278038228 14.689043434858847
153 51 0 21.001536157203837 34.01833230438552 12.841640813036134
154 51 1 19.36292703987359 35.29110339009532 12.451170343617894
155 51 0 18.18109569383051 34.33285619319977 12.646384759858762
156 52 0 46.502119667510165 29.54077954158828 40.84264960085261
157 52 1 46.850759710307415 30.942918554605733 41.98953258877944
158 52 0 46.922182632596325 31.99648444438453 41.254366724346106
159 53 0 8.91689956026468 17.914861858533982 10.134761914749932
160 53 1 6.826667489747567 16.085412165655644 9.584554849201126
161 53 0 7.504956491012879 15.13450085891456 10.961277737069294
162 54 0 16.17408342597194 32.3499260670658 31.72783014275238
163 54 1 15.738422070434167 31.303441764634528 30.33305503666064
164 54 0 15.198813092392655 24.3983978042057 30.978232008379493
165 55 0 11.736588741856751 26.290093594093808 17.70507650915165
166 55 1 11.161701563477585 27.416103816844092 17.80893970062634
167 55 0 11.969019135174584 27.059512027498727 19.21774880614984
168 56 0 6.506188089346085 16.066961875825513 24.373357764273894
169 56 1 5.857978646871561 14.178990543144161 23.296258149997076
170 56 0 5.6494252976369665 14.151688724759614 24.59753160646739
171 57 0 14.95170473165558 16.19251391615738 34.197519515418875
172 57 1 14.139408361720104 14.076382744031985 34.343483853280446
173 57 0 15.461276283416362 15.75905509026518 32.81961223642545
174 58 0 14.140621769276821 28.688042732304712 42.99387308308781
175 58 1 13.770241430779228 28.95909790297894 46.566869404314176
176 58 0 14.303122891173036 27.814718159451594 43.05731740293762
177 59 0 20.116672960762646 17.29598334950052 31.285510675891633
178 59 1 13.79358750213645 10.268718505339834 29.64457569627023
179 59 0 14.419309687149026 10.912227311939665 30.783566378617117
180 60 0 25.62387183615275 45.40096602135418 5.986829871453089
181 60 1 26.87139845594572 45.42572177540563 5.358626309061379
182 60 0 21.249747928187162 38.55281282788999 13.6932169825878
183 61 0 19.328171391710153 20.002693564292848 37.924290580502046
184 61 1 15.520599761977614 17.290503137082815 35.927582661907195
185 61 0 14.866711201969688 17.881792535060708 34.41241629551736
186 62 0 10.552902235980683 48.00670824789299 41.327848867670774
187 62 1 9.005686774877498 48.144778038142135 42.00356400451506
188 62 0 10.089469422858432 47.23627004319254 40.913936720457066
189 63 0 44.84584160694228 7.983140254128806 13.18654150621358
190 63 1 44.589275229128944 6.346317629340275 11.181822757303044
191 63 0 43.17729597007556 8.404064859886791 11.137775387706188
192 64 0 34.40833480999089 14.888631012614757 29.74655064060328
193 64 1 41.30901367334059 10.413519918744576 31.422880135089173
194 64 0 40.63337549592082 9.180830879159453 32.0628548836708
195 65 0 5.628758342331326 40.21533448802045 32.94668999934477
196 65 1 5.400206497072385 42.26944019333054 34.59738474650036
197 65 0 6.458905786393007 41.01604734314108 34.140556557369244
198 66 0 21.874588763732707 22.33274777600048 45.290837593095134
199 66 1 22.293353519242174 20.461819052955878 46.63493549511855
200 66 0 21.191343687427487 19.82284345957915 45.769274688392024
201 67 0 16.373093046624298 6.027447822128329 13.161341608181283
202 67 1 17.477027320728578 2.958856872217147 10.228712821633124
203 67 0 17.25788768317486 5.728045332404052 12.818217934125782
204 68 0 23.864762761291598 33.685294487569045 39.33093856440923
205 68 1 25.09971942932241 38.970392071349515 48.04605423653506
206 68 0 22.37114930585049 36.04179455024553 39.843710887749545
207 69 0 46.0923670249124 41.62322033126634 37.42063305652882
208 69 1 46.313229906858034 42.753615831524264 36.77139758592956
209 69 0 39.24301368543693 44.03993866768104 35.975491060285606
210 70 0 22.822399252538585 34.88744522133418 45.31825483150306
211 70 1 23.997950189804214 35.838694813324665 46.160085205104764
212 70 0 23.049554696189258 34.09319786392267 45.25291433412392
213 71 0 46.25815147646195 23.161443133995075 22.48998516873139
214 71 1 46.557490902247665 21.940421713486657 20.904382402579515
215 71 0 44.36692896908263 22.50978285970502 21.41880903576638
216 72 0 31.44664241725772 10.850686189004067 11.257479434463898
217 72 1 30.50088988022323 11.228464850171347 10.081187089655328
218 72 0 31.456706360232356 10.488194254022021 11.035436403932936
219 73 0 19.215612957032274 39.765740595386 11.087417176497102
220 73 1 19.97153807916675 40.61625136626164 8.901246926775107
221 73 0 19.6089710474757 39.13852241262798 9.420349689719533
222 74 0 23.791390226648222 31.651761840590396 9.186981155014216
223 74 1 23.129761092243882 32.40347162584371 7.55750371299792
224 74 0 23.482228707909407 30.826117850998745 9.287930181715623
225 75 0 9.00649111321882 16.702233753018064 18.222338981641098
226 75 1 7.569771644865486 19.51788825646082 21.003729595075992
227 75 0 7.955594011574384 18.41676355926628 22.372217201602155
228 76 0 33.32064131722067 18.66923491242089 29.812853209252193
229 76 1 35.45787116354797 12.216748471499937 34.31743639917492
230 76 0 35.165262823929794 17.358598792407776 29.319602029843466
231 77 0 12.164416309133886 4.8279033860920615 24.360778928928994
232 77 1 11.812783563352934 3.20973153898393 24.726568522708966
233 77 0 13.63577133659697 3.983611003530498 23.932553493140738
234 78 0 5.685008621715521 11.646994071067589 5.370930086945723
235 78 1 5.967257574318485 12.811041173486748 4.65285797413414
236 78 0 5.763207112898388 14.857901361147436 4.826565013455956
237 79 0 10.779072631789965 13.594313124408028 22.49493193409211
238 79 1 9.722590475604143 11.89064361913309 22.615186490467497
239 79 0 10.838243158086044 12.0743296542714 23.878083386653298
240 80 0 43.57678770504238 23.752084969846255 39.13888742244146
241 80 1 43.86794042345853 22.619005826738714 41.34887714096006
242 80 0 43.272798882330186 24.31762881826117 41.44558882163164
243 81 0 18.660589541050282 15.13114839727877 23.971841143763438
244 81 1 18.517885309325692 14.113440364381223 24.74953712739497
245 81 0 17.161923293842694 15.812719203626665 25.043887517574454
246 82 0 41.88666417388347 1.4473593642071798 9.215152160382312
247 82 1 43.504955974107354 1.2369755700710572 9.69963048364704
248 82 0 37.3282997446336 2.654851558006631 8.731619998068686
249 83 0 19.823731436151764 27.439978612599393 38.56234365618236
250 83 1 20.568551577212762 25.66740154639785 36.60305664886284
251 83 0 26.982524430088855 30.14292520318755 29.713743601007263
252 84 0 18.14128594902971 36.29129958578033 19.101347128460077
253 84 1 22.672031572504704 35.528055202457665 9.385136752049492
254 84 0 18.40547059449387 37.16803806746748 21.067568099215883
255 85 0 45.824180824893666 39.358915810647886 30.7289856656756
256 85 1 44.91764044224241 38.0487838267322 31.536111222042923
257 85 0 43.4599211283434 36.58202995442918 30.333464265262457
258 86 0 26.329187016343287 35.469855790568744 40.03300633695158
259 86 1 24.90686885086511 36.7114034040635 41.17259416180024
260 86 0 23.41436769196611 35.74302268016272 41.38718890176491
261 87 0 17.81743923718841 4.967432041395469 19.276537148771524
262 87 1 16.047342237815787 5.132153191378308 20.03832678884761
263 87 0 15.124388153329544 6.747783869974268 19.608497794290614
264 88 0 40.293348425216855 26.130054935988483 14.813563666058146
265 88 1 43.29900834113383 20.593778888136406 13.487673308194971
266 88 0 41.6786517001152 20.243147600876572 12.49400404895326
267 89 0 40.133056099406325 33.250894770535915 44.07491906821417
268 89 1 39.425985132552405 34.78081989831204 45.67329862626095
269 89 0 37.80479773713714 35.679175122920185 45.36629260902718
270 90 0 11.189461873208565 46.8169813454906 11.918206946367036
271 90 1 39.65355996547926 8.050875109528626 11.913837549008043
272 90 0 38.15005408711199 8.552465576956468 13.442008818810407
273 91 0 18.067977914855568 7.47694899257516 7.953505826213275
274 91 1 17.76665572235809 6.110238457639456 8.776076060070814
275 91 0 20.65016339410991 6.50174947503212 9.635369376362178
276 92 0 13.416731791437304 30.421332966608993 30.900044945721017
277 92 1 10.53558254538229 33.16351504130744 31.90271462164269
278 92 0 12.163545696355774 32.87285984094431 32.726180806289726
279 93 0 19.639497718996648 9.971641589362982 10.487514416513655
280 93 1 20.99431914385036 9.760200131740865 9.018084924194085
281 93 0 22.27296006095053 10.529266907938952 10.859403504874074
282 94 0 27.630668429952756 41.70862419916798 37.86308912884164
283 94 1 25.463576524302095 42.72696918463713 37.013667710107065
284 94 0 23.55441822468825 42.32491634752515 37.552760652402334
285 95 0 11.978585235874052 16.67935495168324 42.953503695498576
286 95 1 10.593460095593233 17.271183345763873 44.07744793405249
287 95 0 12.47207056629594 17.177718163875568 42.65698155369933
288 96 0 16.32049845853654 42.75195183718929 22.515935432452256
289 96 1 15.40319743201828 41.43879918703796 23.539189773669293
290 96 0 13.819778848908896 12.481597184238609 11.291380112087202
291 97 0 30.285250915327204 3.9124445767384555 7.777555342970064
292 97 1 31.44653362690824 2.9011846382786186 5.85807550120552
293 97 0 31.574990865592994 5.14120913701782 7.237818242567486
294 98 0 18.635995192746098 38.80570706016594 36.64983190286434
295 98 1 17.287239806810828 38.807263470165665 36.1863149116331
296 98 0 16.354129702170123 39.20108411844192 34.93522085646228
297 99 0 41.49527897503937 10.570155799802901 45.26943251914869
298 99 1 43.78880558649148 8.241878069856627 46.63927021155946
299 99 0 42.435712143036 10.879155511133575 44.01507328558849
300 100 0 7.039688356728853 39.85778177477666 40.60603030547446
301 100 1 5.1311208543279845 40.96358679155107 42.07905351366606
302 100 0 4.916819468991277 39.679496192156236 40.30795774934748
303 101 0 42.78345564355885 27.044017561914703 24.3339554889757
304 101 1 48.240762842888685 39.6310835359697 43.23427987314821
305 101 0 45.339726235219665 26.657862973093692 26.834988718287143
306 102 0 27.54064094262447 23.788278302251527 43.08465581432996
307 102 1 26.583123287996134 24.691590666407453 43.973940932708736
308 102 0 26.589530094078526 26.182834308884694 43.40821514133093
309 103 0 38.85406744151309 6.891033832983808 16.967430195908975
310 103 1 40.72406607838838 5.184952951900228 17.46685417592405
311 103 0 38.8860896774235 5.9314687401984365 18.527469573584852
312 104 0 35.90657754281967 8.306952176106906 12.526798324349699
313 104 1 45.36394815593032 49.930454677737444 18.294023401602363
314 104 0 35.67192200274399 10.169791066328326 12.703631778039927
315 105 0 34.27000827351088 38.79813870669339 11.77831731460126
316 105 1 35.95470580723987 38.78411939473311 11.381544867354014
317 105 0 36.89781724831783 36.87591050376955 11.541169232831315
318 106 0 21.35781658925722 35.75456725366616 38.289050061314676
319 106 1 23.65663072550518 39.50024781597479 40.57355977066047
320 106 0 23.203849421355507 39.540940406704266 38.70027945221602
321 107 0 25.976306598495498 34.45349954451856 6.9605066173008945
322 107 1 26.383864606597626 35.98445208377735 6.262797283520673
323 107 0 27.933699911254415 36.21005126319797 6.390434088882905
324 108 0 15.418227724519209 24.920932486305457 18.94102080268445
325 108 1 13.727002424840052 24.679843119640577 17.19573946374013
326 108 0 13.3547124968303 25.26729644722347 18.99667221182461
327 109 0 44.57873209354465 25.990679872421154 40.80141464899032
328 109 1 44.75600954261759 24.91492956746871 41.84078082323746
329 109 0 43.345831036404924 24.524350876751672 40.59269308141846
330 110 0 21.30241984223951 34.37203868896184 4.160257066743202
331 110 1 22.76191460962557 35.71826368687696 3.6836153313580975
332 110 0 23.19408785060241 36.9742462339466 4.396000829562364
