ITEM: TIMESTEP
90
ITEM: NUMBER OF ATOMS
333
ITEM: BOX BOUNDS pp pp pp
0 50.0
0 50.0
0 50.0
ITEM: ATOMS id mol type x y z
0 0 0 27.09163836492015 24.32125726004474 32.484517099195365
1 0 1 26.963682080481078 23.15401593177047 33.03059190419745
2 0 0 26.602991265847486 24.53265174303852 34.12632023559391
3 1 0 26.208921781646993 43.6060135654202 8.152201600700291
4 1 1 26.637725376396894 43.511383512811015 6.767382370960304
5 1 0 25.56726376592921 41.39665765612396 8.391837032606675
6 2 0 39.96297485775587 24.82505178718273 36.62047227730115
7 2 1 38.41204919193966 24.388416151336923 37.38222548901053
8 2 0 36.544089202257375 24.745959001380598 35.79387210653665
9 3 0 27.290814923500403 5.4839041136067115 37.13091438553003
10 3 1 28.78196596745541 3.1140541769949635 39.72977481581726
11 3 0 27.56053160604959 5.970487678729706 38.415996834268725
12 4 0 33.71287338076217 18.880525064822304 25.307594044127544
13 4 1 33.949089834030936 17.879645052789307 23.777057873136066
14 4 0 34.05951653282528 16.480331975662093 24.399107748628587
15 5 0 23.032424794228156 25.48069723788763 41.627652339660585
16 5 1 23.179352771409214 27.216970234906807 45.28655833439462
17 5 0 22.403913358415807 27.50547093525325 41.53032473347568
18 6 0 42.82976799335768 30.49303757196195 9.993649749721849
19 6 1 45.265064063819224 37.60515618223697 9.503072503769632
20 6 0 43.16597210619701 36.5040695126988 10.669694280853733
21 7 0 35.68391672817168 7.29540572553784 38.48594295756764
22 7 1 37.31208587300579 7.465495202596619 39.67280461819368
23 7 0 35.83204946890347 9.590978252763422 38.97366199596922
24 8 0 3.6526269008204517 16.728225145937024 12.76714669860335
25 8 1 3.597060454176507 15.232224009118616 9.777976958179549
26 8 0 4.603652446660012 14.099924005413147 9.718169909681015
27 9 0 17.485591370487157 5.563828174660523 19.36660252834707
28 9 1 16.358729452320397 5.242787300450366 17.767462088151387
29 9 0 16.37338877128711 7.055698003519822 19.772338343029478
30 10 0 36.44650329858513 15.98204070100816 18.528403260537864
31 10 1 33.88477381083809 15.854267526783968 11.157505344687051
32 10 0 31.543508271683304 17.36585040903185 10.776335365474063
33 11 0 32.389045650206434 45.76269202366367 13.232399824673074
34 11 1 34.408047989580055 46.39123545995086 13.33651713830081
35 11 0 34.2809514470995 45.221127333695996 14.499512603672466
36 12 0 39.88585634798195 38.66950935313152 11.60336706015637
37 12 1 41.77444284875971 37.98754133937092 11.07939612096507
38 12 0 41.90896601854647 36.82848902304001 12.985903015971385
39 13 0 35.20602835610999 27.288287135341537 45.47740398128419
40 13 1 35.67763121558694 25.861825453107077 46.215294680959644
41 13 0 35.43337849301035 25.254743314837288 44.89036387330011
42 14 0 12.42421871395961 28.308118142635266 23.22574347454102
43 14 1 13.399988627810876 29.257249619390667 22.404810657102104
44 14 0 12.971659300558967 27.98211753227827 22.82140272523158
45 15 0 27.17822002266164 21.708638933466712 41.66040864092429
46 15 1 30.578435419244332 21.81634528543362 43.656626830474416
47 15 0 29.653311293911027 21.811261183595885 44.28722734825762
48 16 0 43.698018183279046 35.985955054676275 43.21497775889385
49 16 1 43.621425904712495 36.09500830537627 45.33476889090818
50 16 0 41.72926177843636 36.48855185067858 43.64199278370195
51 17 0 43.84591350898528 22.09482573195357 25.895104421896527
52 17 1 44.63373135344225 23.274400424668315 24.728880180851434
53 17 0 42.33925477710667 24.082216635507482 24.456482918121058
54 18 0 43.52262114592764 13.961552380373861 19.671083095567475
55 18 1 44.25297144590904 13.830884272435298 17.575056306662574
56 18 0 43.48569154921504 11.815021802338752 18.275917298007595
57 19 0 35.970246370565846 12.107255587677734 14.814567954682536
58 19 1 38.076565100311896 12.395525808109317 15.576367458575268
59 19 0 38.88602503002103 13.93162728037611 14.75176757913904
60 20 0 12.159401479125213 43.91548515861675 30.679250415778505
61 20 1 12.864506716314034 45.20012630316988 30.934339425039337
62 20 0 15.116772408239292 45.12623818641123 31.410043562094714
63 21 0 10.575839395318585 42.64418824182022 32.83753643857024
64 21 1 10.424449847537739 43.89275810981927 34.27004400835308
65 21 0 11.232709536155273 42.15993408489351 33.210192070654486
66 22 0 29.230675649734252 18.6678590773846 9.918800292977522
67 22 1 30.710127391682683 18.32030718716803 9.102752266951228
68 22 0 29.469001036318716 17.414159029191037 10.948855593375184
69 23 0 44.88168214814456 12.301635363954038 34.713726716230504
70 23 1 46.18330790416632 11.166555484530692 34.020481354249306
71 23 0 44.31025424395764 10.411120369967099 34.17825422648768
72 24 0 36.67135896364471 30.46988869396585 40.5525953673445
73 24 1 37.87153221962088 31.477939210172345 40.946446351603065
74 24 0 35.818654581314824 31.79070509309175 37.91819663848964
75 25 0 46.4164527014893 35.486110120285765 11.704046368138254
76 25 1 45.40178706491456 35.88618302783317 12.007696341528991
77 25 0 43.35924002809786 35.30467791974024 11.38190740138361
78 26 0 22.988112903906714 13.957809102378263 27.849366600484597
79 26 1 24.302903583173833 13.191176669673368 28.647407018714198
80 26 0 25.81990465305755 12.641533165917766 28.440713634931907
81 27 0 25.01030102652037 12.549829017396092 11.074510392357075
82 27 1 25.990736913373162 10.949722030634533 11.092262278583329
83 27 0 24.193305126637075 10.918095744754917 14.75188227209734
84 28 0 11.777133673475749 23.743451096757884 24.2957418459988
85 28 1 9.065128382686401 26.140621201312907 27.408892907978544
86 28 0 10.958533145160331 25.796639869682622 26.93510127798998
87 29 0 30.315183916717526 33.680664733768566 17.751669363182465
88 29 1 31.70229738262669 35.26818169326944 16.21161833267181
89 29 0 31.771566501862996 33.42922479811916 16.495815861776865
90 30 0 48.1286428579122 16.28347800452055 43.43493444849448
91 30 1 48.06828364164483 14.78159289064662 45.007451083905885
92 30 0 47.9793975731291 16.35768950610099 44.3320234035995
93 31 0 28.083007687292838 4.033503127384593 16.546127791159197
94 31 1 29.380345142352358 4.0381878195279315 17.628681184235923
95 31 0 29.032857918967746 6.657542424567984 18.36803615013192
96 32 0 9.990549621116957 38.72996339488521 10.519899959823375
97 32 1 8.766599214449483 39.05111426416524 9.709501431151976
98 32 0 9.699692296856234 37.34110692639135 9.328313789121065
99 33 0 43.57613776884639 38.50745291140402 21.533405100735113
100 33 1 43.35214341437236 37.49557017300548 19.965053234782907
101 33 0 41.80020641876421 35.6422334018933 21.73724859685124
102 34 0 1.4142462383926688 33.178364241585236 11.63326426894014
103 34 1 1.0727731626439947 34.827478621319926 10.269860337574263
104 34 0 1.1643537192910058 33.198682138599985 11.488784503531024
105 35 0 34.774696674196576 23.97037334290066 39.16688846114495
106 35 1 35.797100943682295 23.50506338642581 41.03882393774413
107 35 0 34.58472159814717 22.83748166454527 38.64618434971555
108 36 0 35.758191966158165 44.55414150518947 44.966522527422725
109 36 1 36.967438426903556 46.47929220656274 45.9453478512961
110 36 0 35.65629459274016 45.652853819564164 43.32492562114782
111 37 0 17.786614403001053 22.905184699602824 31.05991938328753
112 37 1 15.064828886510032 20.446583491820405 29.406217206551553
113 37 0 14.56176526884424 19.950473748414222 27.700605015833084
114 38 0 10.685312522289127 31.860761190849118 23.52107539180097
115 38 1 10.619938375297199 29.919512824798552 19.84971895792513
116 38 0 9.982505282819403 32.24116101212112 20.061658951914772
117 39 0 23.85803226938816 31.83772458026364 15.9878720302447
118 39 1 25.581273662422433 32.323204155550776 14.929398832297075
119 39 0 23.267913676391718 30.602824964241613 7.500282486312427
120 40 0 21.449155735192736 43.28789281954134 24.436950009762068
121 40 1 22.867259646169476 42.87738877531473 24.32805506502232
122 40 0 23.768794180716306 41.457723726602026 25.589795290322858
123 41 0 34.91134668518675 24.794275043082482 9.50638232777474
124 41 1 32.136389276574405 29.581081912726543 11.451886037575118
125 41 0 33.71595116342534 24.807355003395855 10.922124925926509
126 42 0 23.495877428679236 45.7098448199166 31.101670798855796
127 42 1 23.71498253079798 47.066211039178505 30.209690655132615
128 42 0 25.125729394371223 47.09187805595967 30.94671744738677
129 43 0 7.521001915214728 20.933466026145215 18.08543868553717
130 43 1 6.168314898264641 20.540850857128525 16.07565989198364
131 43 0 7.923887377601373 19.48780066126328 17.51766306627901
132 44 0 9.976193201319393 21.00833771288121 41.511487204557234
133 44 1 9.490201794036542 21.36990967564467 43.877951464778185
134 44 0 9.119337143264897 23.173968195669207 44.168105266721525
135 45 0 29.3722040100949 4.78915278648481 2.522381563911476
136 45 1 30.03083980761934 3.9960627625386955 1.5606690289637277
137 45 0 29.780022449360683 5.954275054479526 1.5888960337103621
138 46 0 3.6943539206147373 8.798332235525665 27.801748520373604
139 46 1 3.3259029346129445 9.087378428957445 29.56926791606926
140 46 0 3.9726662855883275 12.845593465956158 30.856307703120855
141 47 0 41.28781218118848 8.966644708824239 38.87025067751604
142 47 1 44.36047594316732 6.2904161975009885 38.60514130089938
143 47 0 42.79373312557833 6.193100406337635 38.16988769544918
144 48 0 4.733693881365191 18.745636150905195 5.381587434853687
145 48 1 4.2214707835647385 17.66831312315817 3.89840053280699
146 48 0 6.211516794555347 17.791925480643364 4.719674543561626
147 49 0 16.58505280419594 21.902564413029687 37.38838424580532
148 49 1 15.34759181016739 20.667364443741413 39.20882800581176
149 49 0 17.07203829020392 22.051425083751095 39.783352362319036
150 50 0 8.609827209381534 46.864149922968856 12.7745687276271
151 50 1 8.05081305258221 45.95644367744594 13.245965032856176
152 50 0 10.242569957368374 44.68979454331872 14.65364979153004
153 51 0 20.96935002827779 34.04366449995526 12.833887740404007
154 51 1 19.36395698676247 35.288685300149 12.451828671371988
155 51 0 18.196772470837992 34.34620768943984 12.643632638366286
156 52 0 46.50817184757094 29.565029855746175 40.86267156676886
157 52 1 46.85041934616585 30.94199699049489 41.98784427380582
158 52 0 46.92158131453893 31.986981785715248 41.261356268830426
159 53 0 8.866720708227737 17.871329863092964 10.121253609674298
160 53 1 6.830567810494855 16.087173590390027 9.58686712369778
161 53 0 7.492669372906393 15.149837792591967 10.937802910447958
162 54 0 16.1667511217353 32.33167904221242 31.704623191470127
163 54 1 15.737827224630713 31.291102022520555 30.33576103702829
164 54 0 15.215682182938867 24.614082543496693 30.958138751738147
165 55 0 11.73021160604736 26.299633671105557 17.702495384063344
166 55 1 11.16290893428901 27.415057392724613 17.810398103009682
167 55 0 11.9560091525769 27.066857569649734 19.197078683825556
168 56 0 6.493042289308223 16.028049200481156 24.349739857955026
169 56 1 5.85876226779474 14.18162669644561 23.298551743388234
170 56 0 5.650003219127758 14.148432557036614 24.58445945123126
171 57 0 14.93394556956145 16.14878155722638 34.202596280062494
172 57 1 14.142406133727414 14.081602769142116 34.34105229143896
173 57 0 15.431063807029856 15.719245759604823 32.853453481380306
174 58 0 14.130586188453517 28.696343976737403 43.08861563013585
175 58 1 13.771753884560075 28.956718138772754 46.555030956900815
176 58 0 14.288958738936431 27.844493991638423 43.151990660778694
177 59 0 19.910498089665754 17.06685310693805 31.23189772574383
178 59 1 13.807101146739098 10.283709453344247 29.648597464702693
179 59 0 14.409265763280136 10.901496562030536 30.772827727337898
180 60 0 25.636315234080197 45.40542054889202 5.977138268389002
181 60 1 26.85878471080844 45.41022440534934 5.37726719250668
182 60 0 21.43744165025281 38.782174014038524 13.415033874722806
183 61 0 19.216262764638582 19.923018498986718 37.86555976996792
184 61 1 15.526908159736665 17.296070543582857 35.92969788286684
185 61 0 14.877694749378486 17.872391776943434 34.437279993413505
186 62 0 10.529869587947221 48.01220205940013 41.34051834333583
187 62 1 9.008430742519177 48.143632543733396 42.001681868345
188 62 0 10.068598925513946 47.249105975729414 40.93138248212596
189 63 0 44.84068338142016 7.945135287317421 13.141175442311097
190 63 1 44.587660345885666 6.351578298538888 11.184657509728156
191 63 0 43.20830970502647 8.357904630189472 11.137782948512314
192 64 0 34.62978611741429 14.74502560500151 29.800342867599856
193 64 1 41.294560047514516 10.421453912028166 31.420061032093955
194 64 0 40.64317460726848 9.19749018981804 32.05415951890501
195 65 0 5.62205123085131 40.2630223800573 32.984173528442035
196 65 1 5.40150907126186 42.26514892197494 34.5944310357299
197 65 0 6.444756196137554 41.037015222483255 34.15033159526534
198 66 0 21.884044046339444 22.29315334068206 45.319913822218204
199 66 1 22.291814120222824 20.463839399702458 46.632327531183606
200 66 0 21.20651507328743 19.830105830136365 45.78192920535032
201 67 0 16.40355514774194 5.940507044492318 13.078312729199956
202 67 1 17.474688166961926 2.9689653051893434 10.238277845202596
203 67 0 17.26485110102059 5.65325369284022 12.748203743845103
204 68 0 23.905344091776627 33.85870803800397 39.61699949390238
205 68 1 25.091664182353714 38.95362251177682 48.01157277313931
206 68 0 22.459456256892793 36.136725455173774 40.109374318858855
207 69 0 46.09595048042209 41.63422166057343 37.414325700156496
208 69 1 46.29912016948652 42.75545258343194 36.77022988118271
209 69 0 39.46518612823904 43.99955218278536 36.00048150423646
210 70 0 22.838690837481337 34.90646772049904 45.33128332030748
211 70 1 23.99558916529027 35.835392825519044 46.15807106454167
212 70 0 23.071023460811396 34.126965771391426 45.27211102942447
213 71 0 46.265575529977774 23.13828783241741 22.46010011454144
214 71 1 46.55414897253496 21.942669545902643 20.90699427582385
215 71 0 44.41299606340079 22.49696256639745 21.40686602595449
216 72 0 31.432764895662462 10.861333619280677 11.243558804592148
217 72 1 30.502587095234574 11.227476169809968 10.08309237613016
218 72 0 31.443451148557322 10.49335870036793 11.018864651544934
219 73 0 19.23235987434932 39.78599008053332 11.039679704099838
220 73 1 19.970113004191408 40.61372697320755 8.90491034121182
221 73 0 19.615017150882753 39.158678037863915 9.409470683843116
222 74 0 23.7813383365376 31.66847128883883 9.158347808241876
223 74 1 23.130954090955157 32.40037535122369 7.561690472071856
224 74 0 23.473208406643902 30.858455528525155 9.249528458554364
225 75 0 8.966279197436679 16.781066846841043 18.30002541748001
226 75 1 7.57270973735751 19.511765123260773 21.000285660448505
227 75 0 7.9488011032190355 18.435901770749204 22.349652701378385
228 76 0 33.388780644845006 18.46314819848795 29.95684743494109
229 76 1 35.45302726688233 12.23971025370464 34.298649137364855
230 76 0 35.174622074184235 17.19729925364197 29.476204188307428
231 77 0 12.156135998764338 4.803324062998084 24.36743474706288
232 77 1 11.815523026404561 3.2123405726020424 24.72516610925729
233 77 0 13.60021671796441 3.9664426249886495 23.948340287430888
234 78 0 5.687265817989018 11.661489432363169 5.3645672295093725
235 78 1 5.966899417380064 12.812620507952586 4.653403740916187
236 78 0 5.766688817120991 14.818111426000746 4.824186628321849
237 79 0 10.758319842035355 13.562526216789767 22.495849062479152
238 79 1 9.725024086226446 11.892933868484977 22.61631223767778
239 79 0 10.820084357787566 12.069456081412342 23.859148484192268
240 80 0 43.58361521793006 23.725920955956305 39.18767630102157
241 80 1 43.867082214504684 22.622948387127686 41.34590708555797
242 80 0 43.284639641593714 24.289561539357432 41.44640313247023
243 81 0 18.662549315735145 15.11977689019324 23.97697953795582
244 81 1 18.516079343824593 14.116359129363873 24.74951988537838
245 81 0 17.18885874290239 15.777391269887103 25.039021815234154
246 82 0 41.912870775018746 1.4408554581147395 9.218560046437489
247 82 1 43.49142670487189 1.240097373349895 9.697534212906676
248 82 0 37.51855977979615 2.611393113036673 8.761748042723713
249 83 0 19.84143572443042 27.39832242098824 38.51601316757041
250 83 1 20.580634110434083 25.679205153494166 36.591784207516696
251 83 0 26.771499606702633 29.99572577379273 29.940432183968404
252 84 0 18.290553380609563 36.26608246565309 18.7810451590087
253 84 1 22.653782872840722 35.533057509226246 9.429569769388962
254 84 0 18.548187232264194 37.11324172982655 20.676958748401567
255 85 0 45.80873997741407 39.33680087675037 30.741950903094146
256 85 1 44.916624821219514 38.04816710487941 31.533689681937116
257 85 0 43.49161163485069 36.6140109691816 30.35924181452887
258 86 0 26.300139714996384 35.49528658215273 40.05631213619579
259 86 1 24.907109748448345 36.70881385387664 41.17135485800469
260 86 0 23.439420316424975 35.7593683749033 41.383627083954764
261 87 0 17.78384460975511 4.973169568445846 19.29068762660195
262 87 1 16.0486462476966 5.133886476570031 20.03527801003073
263 87 0 15.141207214603675 6.71877549322353 19.616091707829654
264 88 0 40.38606577940891 25.959400068431126 14.77272762583112
265 88 1 43.291346536046326 20.604102346392004 13.489112015322481
266 88 0 41.708523029839 20.248628811692168 12.511818960326158
267 89 0 40.117822675935884 33.28345742145302 44.10874883952973
268 89 1 39.42514304470312 34.779790569265266 45.67086580523698
269 89 0 37.83347020744268 35.663074611293325 45.37139966288414
270 90 0 9.244024171920644 31.561475122152707 49.290339444118
271 90 1 39.58790522676004 8.107926652466755 11.988291302714403
272 90 0 38.17900469986247 8.540434351246398 13.411695292661717
273 91 0 18.062045963838603 7.456732997971682 7.965095053432527
274 91 1 17.771488959335613 6.112129633431273 8.776665832954905
275 91 0 20.578746745020354 6.4916796705115445 9.614342020221743
276 92 0 13.336496442370949 30.497243307047068 30.92747818469118
277 92 1 10.542394237553781 33.15833937032622 31.90178821622102
278 92 0 12.13477501024355 32.87976022366923 32.71357586577991
279 93 0 19.664211524904225 9.9672606779419 10.458962288183416
280 93 1 20.99445008733145 9.761512196556794 9.022379445948367
281 93 0 22.246155709194582 10.512675641748427 10.819239251355999
282 94 0 27.581563687779497 41.73128529550383 37.844251983294136
283 94 1 25.464357063040914 42.725108214773414 37.015454358636276
284 94 0 23.591042221944356 42.3320450504252 37.54299777658178
285 95 0 11.952784836363788 16.685980327282316 42.97379482760302
286 95 1 10.597575217730611 17.27048042953252 44.07426443300415
287 95 0 12.432038074388254 17.182298405439198 42.68763061083785
288 96 0 16.303987179095223 42.72755166312547 22.533952765044244
289 96 1 15.40075134835578 41.376737089915935 23.51117036871819
290 96 0 13.875425818227093 13.498990710162785 11.721672258605254
291 97 0 30.309896288807593 3.8887645177562 7.735317438022741
292 97 1 31.445109739366046 2.9058554772085086 5.862754054867597
293 97 0 31.57313663788508 5.090147833688896 7.205225175385602
294 98 0 18.620796122411146 38.80676666824485 36.6421398116533
295 98 1 17.287236526275166 38.80751595191583 36.18571560412958
296 98 0 16.369379831492214 39.1959843909801 34.95250139061245
297 99 0 41.55515244848017 10.508559244260246 45.30636526513123
298 99 1 43.78270180532326 8.250253710151352 46.632492667303325
299 99 0 42.47349870345069 10.806740918407346 44.08658316132046
300 100 0 6.9964733953879295 39.88384364689267 40.64079104017968
301 100 1 5.133662398226552 40.960314469072 42.07461734460251
302 100 0 4.9193687021430454 39.705789996103256 40.34417809682037
303 101 0 42.97296959365515 27.480997442595996 24.99017175037623
304 101 1 48.22265614677356 39.575753316971635 43.15785114982653
305 101 0 45.43992492571093 27.106171875519905 27.40163248260935
306 102 0 27.5269282225164 23.801215014005795 43.09738896912888
307 102 1 26.58398667858457 24.692124779978144 43.97263521310732
308 102 0 26.589439397988592 26.16134987995368 43.41636420190295
309 103 0 38.8972093668547 6.852571467745537 16.977454746620566
310 103 1 40.718963000875895 5.188399620134662 17.467507608965676
311 103 0 38.92459712903172 5.91477951598002 18.506997884094606
312 104 0 36.31392505511155 8.527366749561873 12.485171751590997
313 104 1 48.62299771298404 13.304015325120636 9.641275345636663
314 104 0 36.086733195557365 10.327119553641136 12.656139988679469
315 105 0 34.29718734238603 38.79762282491709 11.771974358095537
316 105 1 35.95419191677074 38.781780078219825 11.38213648291522
317 105 0 36.878851786945326 36.9138569119979 11.538044876435901
318 106 0 21.42494498025024 35.86379795397259 38.356031535798195
319 106 1 23.651878288542083 39.493324695502324 40.56726547216745
320 106 0 23.212907399105987 39.54213332415669 38.73408848411948
321 107 0 25.982871301252498 34.47818695024 6.949253883652778
322 107 1 26.384822137770186 35.98310790051265 6.263613216968333
323 107 0 27.911877630885588 36.206887036905385 6.388630740180581
324 108 0 15.382043377256444 24.91522074384613 18.901792417298655
325 108 1 13.728977226195232 24.68085280987729 17.200268679174847
326 108 0 13.35934652542413 25.25680453137488 18.963419289172307
327 109 0 44.58319125683416 25.97806859538991 40.81622364379895
328 109 1 44.75384529856221 24.914821138602335 41.83825162053661
329 109 0 43.37106783717961 24.529840285468204 40.61627140785445
330 110 0 21.33025065163967 34.398284388604544 4.151738221203782
331 110 1 22.760589505822075 35.717670030744635 3.6846683743158857
332 110 0 23.187427946852537 36.957508074162135 4.3876239640544314
