ITEM: TIMESTEP
93
ITEM: NUMBER OF ATOMS
66
ITEM: BOX BOUNDS pp pp pp
0 50.0
0 50.0
0 50.0
ITEM: ATOMS id mol type x y z
0 0 0 27.145337048378938 23.851799199083615 32.35897000004436
1 0 1 26.95959264365852 23.229851330308318 33.05513824163063
2 0 0 26.726537387284036 23.742568398028308 33.79681438622671
3 1 0 26.471891438342965 43.97981199896521 7.642335685606531
4 1 1 26.57546807432127 43.40608247181885 6.882704002140084
5 1 0 26.285132008751823 42.59660726495488 7.138921398958012
6 2 0 38.17951999624436 25.392034542569398 38.36177301458341
7 2 1 38.036830665992944 24.655067461863865 37.809720885814144
8 2 0 37.39073098536985 24.809528913803266 37.19721695432189
9 3 0 17.051181627194666 34.6964118017479 24.55436357277658
10 3 1 16.221760640126583 34.775213160395715 24.139540900124295
11 3 0 15.86156192927415 33.89580854750077 23.978044166562825
12 4 0 33.8221687833623 18.433022102496203 24.57104442528178
13 4 1 33.943745120813816 17.87759370425347 23.840373119258093
14 4 0 34.02145602964963 16.990230145125793 24.134238526173295
15 5 0 17.605135083630007 18.921484053128363 25.521634146994128
16 5 1 17.07066822891547 19.479673367616186 26.033329278292644
17 5 0 17.068603631185862 20.309187039548746 25.650675027122354
18 6 0 12.830500600484138 21.526676975781072 15.271197063901838
19 6 1 12.28622953202448 21.51863641821978 14.450452767409459
20 6 0 11.614771695344253 20.807991556791197 14.533688530718848
21 7 0 36.58122367086699 7.059799619139 39.085272629073856
22 7 1 37.18767211083613 7.553420441083958 39.59880802897117
23 7 0 36.92629637404946 8.421233612589237 39.55719710569359
24 8 0 5.900276613893077 15.029812702814917 8.663677223328692
25 8 1 5.234658269681151 14.607138153656669 8.24580561592156
26 8 0 5.341200009004371 13.679556763591004 8.423619292271823
27 9 0 26.480380833619556 12.697698276462999 27.978646952347734
28 9 1 26.63426680337633 13.592429099764956 27.71982989709038
29 9 0 26.061903381655647 14.135374930385996 28.190332415264304
30 10 0 33.76888924323322 15.415256852549255 10.58335592702478
31 10 1 34.39246380261738 14.756766118400193 10.774619762014932
32 10 0 34.25943094357251 14.382617701081584 11.602164826473595
33 11 0 33.440259276364834 46.20753845883649 13.164971429633859
34 11 1 34.32666372117185 46.33133131037661 13.368096715367397
35 11 0 34.53224162170658 45.73566589838947 14.061101911836742
36 12 0 25.018284719678093 48.253274164889106 37.09277669214941
37 12 1 25.343674566924708 47.68754964077399 37.79038486533548
38 12 0 25.242945612488246 46.8410704400185 37.50170455266366
39 13 0 35.422030707925664 26.756698443930333 45.8993895315693
40 13 1 35.656475543553086 25.891327411890373 46.15731861869547
41 13 0 35.554848665742455 25.3353563702032 45.405204032423875
42 14 0 12.592743380157872 29.182192882943546 23.035257395415787
43 14 1 13.349146919790806 29.186120525199858 22.445734523671465
44 14 0 13.583958696457323 28.255997575310452 22.325538604384302
45 15 0 31.75026031472435 22.435794668900613 43.35900602153846
46 15 1 31.691258570203253 21.95950155474073 44.17162173287938
47 15 0 30.77873845327205 21.842087347985295 44.38300687516068
48 16 0 44.1139348096108 37.119961978261934 44.60949013673571
49 16 1 43.605003914706025 36.74888595278056 45.30145692891221
50 16 0 42.74190331330106 36.68345179457725 45.00192850809304
51 17 0 23.99989615708954 39.09492467705726 42.993529780612874
52 17 1 23.617561011197015 39.920636928544944 42.96070774457675
53 17 0 23.055330922005847 39.951129820824 42.23217061732378
54 18 0 39.956226174971455 4.3815472064771885 18.422227106850272
55 18 1 40.54202338636876 3.7715891871942206 18.608725431731376
56 18 0 40.64986070525172 3.7032086168473786 19.551938517623924
57 19 0 37.18017750702698 12.315655793932947 15.220242950675342
58 19 1 38.02980258566967 12.429710242361184 15.528050108014641
59 19 0 38.429972289316005 13.165619431935257 15.13866604986046
60 20 0 11.908275630451515 44.271400111476005 30.649163482738857
61 20 1 12.512909026489123 44.949418946407675 30.910141940533258
62 20 0 13.28082372031692 44.51778689703033 31.223697688461076
63 21 0 10.065262045329229 43.65153459048194 33.32016789369923
64 21 1 10.48510928634593 43.74759829643151 34.208268132666845
65 21 0 11.20862959192837 43.10747653563006 34.32941207988231
