ITEM: TIMESTEP
98
ITEM: NUMBER OF ATOMS
66
ITEM: BOX BOUNDS pp pp pp
0 50.0
0 50.0
0 50.0
ITEM: ATOMS id mol type x y z
0 0 0 27.167020300217324 23.812301448965574 32.28912248842837
1 0 1 26.960141313224376 23.23349906075908 33.05285574987009
2 0 0 26.69583133472257 23.72414071927469 33.903280511622356
3 1 0 26.477670435953854 43.99977221476594 7.6401834444041254
4 1 1 26.578165046974856 43.414359874893115 6.880825567675646
5 1 0 26.235811185587046 42.44406866690108 7.170784068266132
6 2 0 38.15995964038161 25.477332361805427 38.38676595493071
7 2 1 38.04551859222501 24.643954571446308 37.81284331654602
8 2 0 37.27266530126522 24.902149938502426 37.120122013020485
9 3 0 17.03988894778868 34.387287431786106 24.555049709041814
10 3 1 16.206141065861186 34.79911969043542 24.131291523339858
11 3 0 16.126980189874757 33.8303915732839 24.111639487090844
12 4 0 33.80940348402864 18.492230760442308 24.646607582003156
13 4 1 33.944208951986916 17.877906118504995 23.834761606581136
14 4 0 34.02758638513563 16.926727106186235 24.148310182419493
15 5 0 17.656170302378722 18.846277209550955 25.482951065910544
16 5 1 17.068065368073214 19.47659279136429 26.03849521807475
17 5 0 17.058965237144747 20.43335921220767 25.606862357256375
18 6 0 12.566043038789037 21.255100876581064 15.2909522989384
19 6 1 12.289541179937892 21.535119451540954 14.429717408257108
20 6 0 11.82628787400188 20.815751550682762 14.845388917826787
21 7 0 36.53310701293965 7.038126971798582 39.047437694948684
22 7 1 37.193990206955256 7.546965738228987 39.602230720985816
23 7 0 36.873365777739515 8.546073464380765 39.54030543079175
24 8 0 6.025936847196374 15.15148772348864 8.737896863095237
25 8 1 5.229612073778393 14.602357177290012 8.24280986918928
26 8 0 5.296093051659559 13.634197636739437 8.397164073981083
27 9 0 26.491269593312747 12.641954268069894 27.97546954511787
28 9 1 26.63769747113482 13.59069411097752 27.716790180286072
29 9 0 25.99547467010673 14.217833254258156 28.242467807831044
30 10 0 33.68337754156366 15.4722915934609 10.613326962380086
31 10 1 34.40157016970244 14.753986239687174 10.765256393057696
32 10 0 34.193367564188534 14.373810755063731 11.714205248755821
33 11 0 33.32880781456268 46.22410239335475 13.106203715709615
34 11 1 34.32967430682489 46.33198727774092 13.368563247083646
35 11 0 34.59592764499883 45.70876310651006 14.112728202939381
36 12 0 25.012105878386002 48.2542000778497 37.07882007118928
37 12 1 25.345412272110842 47.696293653440044 37.79487704973509
38 12 0 25.2216018321773 46.70109263594031 37.44329881603086
39 13 0 35.41110530839594 26.846290492437017 45.92117400328892
40 13 1 35.65726040380906 25.89096989852473 46.15764079972548
41 13 0 35.56356400000034 25.26229007509485 45.38522456842112
42 14 0 12.598873069980009 29.139004127671807 23.033231230866484
43 14 1 13.35100181855811 29.187656202096942 22.44381673743315
44 14 0 13.543855082929834 28.267178805274916 22.355920195185163
45 15 0 31.782025469064465 22.459643719213556 43.317672183662324
46 15 1 31.69109793417134 21.958600018334707 44.17172823189703
47 15 0 30.738081846941316 21.821682771853588 44.41824222358624
48 16 0 44.098348667849905 37.14567234345874 44.533835347571625
49 16 1 43.611287960957675 36.7462821208957 45.31170620797423
50 16 0 42.65706518890594 36.69955663795189 44.91362353882839
51 17 0 24.066690121176727 38.972842959689274 43.011995191204015
52 17 1 23.618008851040113 39.9266378248315 42.96482889380294
53 17 0 22.981213586396173 39.97641969290887 42.14836352461187
54 18 0 39.77610890350802 4.572061141291363 18.42649298539704
55 18 1 40.552148564591434 3.7607595811238395 18.606848301928764
56 18 0 40.66828596675316 3.684997981494344 19.578027714198345
57 19 0 37.058845044736415 12.33499901990363 15.148429481276409
58 19 1 38.03674710995278 12.422884722369227 15.536747930235885
59 19 0 38.44601463633633 13.25238145067422 15.078224777941156
60 20 0 11.835264592114358 44.28569396159417 30.61543551323076
61 20 1 12.515096014224238 44.94888801272099 30.904839460513607
62 20 0 13.370130892953874 44.54235723587994 31.259464547664003
63 21 0 10.51218299839748 43.25460700187875 33.40483319041732
64 21 1 10.469082343828417 43.77524793878516 34.2418591434082
65 21 0 10.966605844743253 43.031856703427074 33.790171334006516
