ITEM: TIMESTEP
99
ITEM: NUMBER OF ATOMS
333
ITEM: BOX BOUNDS pp pp pp
0 50.0
0 50.0
0 50.0
ITEM: ATOMS id mol type x y z
0 0 0 27.09239976693745 24.206696543696346 32.49281233215347
1 0 1 26.960570192975776 23.174917337121755 33.03919198866485
2 0 0 26.652036014174364 24.312785354259734 33.980410017916974
3 1 0 26.265728114149688 43.63941551561635 8.003720932452861
4 1 1 26.621484042567243 43.499635716839386 6.785980983139696
5 1 0 25.796669124890197 41.84156335018915 8.035289989251385
6 2 0 39.73084508031827 24.76086634331428 36.73117437748569
7 2 1 38.403531574008824 24.396783663890062 37.35586153822855
8 2 0 36.912668337381 24.676325348642255 36.10468111229955
9 3 0 27.6453085732512 4.913242771450817 37.74226922500646
10 3 1 28.742413205564347 3.1897639285577357 39.672283645849674
11 3 0 27.838876868390376 5.329788931611848 38.724501703619886
12 4 0 33.74895929330561 18.730000753783603 25.07036677405493
13 4 1 33.94762260243334 17.878677904491152 23.79687930569851
14 4 0 34.04690367977538 16.64633375567535 24.319192164367067
15 5 0 23.069862558000885 25.896622104464644 42.51642521425576
16 5 1 23.16556751704132 27.19489854625052 45.17510272290752
17 5 0 22.58673380861849 27.442939121118155 42.424952152663714
18 6 0 43.50816595119341 32.47804257706885 9.857611497491781
19 6 1 45.196857491507515 37.4668039338302 9.526280864709541
20 6 0 43.57950391295511 36.72848105140929 10.44082403698661
21 7 0 35.95825919733345 7.303774978264286 38.68254777248687
22 7 1 37.27555501346977 7.491765195823594 39.65118876364352
23 7 0 36.14216964011136 9.16227547485886 39.12293402632589
24 8 0 3.6411638209215935 16.385208577951687 12.08445741439776
25 8 1 3.6052433683345653 15.245169426863315 9.819928261638255
26 8 0 4.484717463424541 14.235937426651521 9.729703710779848
27 9 0 3.8934881904814027 37.32155912261951 33.9361333928239
28 9 1 16.192137902513362 5.706301712762203 18.283340988085623
29 9 0 16.368849309989624 6.69803052820527 19.410643856114188
30 10 0 35.72157836661961 15.949318301782517 16.455961952538573
31 10 1 33.89871693028228 15.87632793026647 11.280993136803383
32 10 0 32.04559104017866 17.045554198583982 10.87307461126852
33 11 0 32.739656802857965 45.880442363031165 13.241584045952534
34 11 1 34.38388109614388 46.373934603550346 13.345387217503697
35 11 0 34.3170107658364 45.38021024243949 14.348414083962517
36 12 0 40.21058722971857 38.55490426975105 11.508634563444154
37 12 1 41.755394221916355 37.98156842533112 11.107161628174143
38 12 0 41.888452670182375 37.03879085735283 12.636433321923064
39 13 0 35.272316471642945 27.100820348592613 45.59025462757012
40 13 1 35.671477776408366 25.870305892481237 46.198572147615344
41 13 0 35.465558368887244 25.306575134241424 45.04520846653788
42 14 0 12.520085262654215 28.472188841977843 23.14047043556333
43 14 1 13.388155686009224 29.240711831922336 22.4151437451982
44 14 0 13.065577700882997 28.082622970228048 22.741805976541574
45 15 0 28.00425244573619 21.734666947117514 42.13954323348793
46 15 1 30.522304444296797 21.81459416010217 43.62556082730797
47 15 0 29.725518339078146 21.81303522107465 44.30514654880267
48 16 0 43.705289525677586 35.99989636263443 43.584578732357514
49 16 1 43.59796173228984 36.098882979543866 45.289876358077386
50 16 0 42.097745237809214 36.41274313766066 43.99067825166185
51 17 0 43.976027641986065 22.270099685617698 25.719394581603414
52 17 1 44.59757931537255 23.273009561154847 24.736824976507894
53 17 0 42.787377168115356 23.929315679894252 24.50547737952914
54 18 0 43.657919830969874 13.94981325575191 19.291485199677467
55 18 1 44.23552978407072 13.80872940838564 17.607499628186897
56 18 0 43.62950632145257 12.1812423128677 18.13645420432448
57 19 0 36.35937199697364 12.16239225289718 14.953833843975653
58 19 1 38.06054201781864 12.407523087332082 15.55946202049639
59 19 0 38.753213855761 13.684642571972102 14.883107112294482
60 20 0 12.247745216694032 44.05887997172341 30.709768622165342
61 20 1 12.885349765822895 45.19056427030638 30.937996869305074
62 20 0 14.695189780479772 45.135991485557135 31.320665677113546
63 21 0 10.521578835049416 42.860311470709945 33.041995522652414
64 21 1 10.435566967750514 43.86027707017004 34.24395157119072
65 21 0 11.108993152548324 42.46342136584436 33.42353060554584
66 22 0 29.43183986921394 18.648560387521634 9.780726112672086
67 22 1 30.68180666998787 18.31157068973192 9.133292004830166
68 22 0 29.720748642490612 17.573433523612902 10.598178244120284
69 23 0 45.09739536137225 12.14262571106042 34.6090708139397
70 23 1 46.1498245264355 11.169592655386898 34.02911948798564
71 23 0 44.63039536342943 10.521573513963045 34.14473306941913
72 24 0 36.82967113592554 30.580623807280244 40.63024887993888
73 24 1 37.83113199253046 31.475315407540762 40.89699578209963
74 24 0 36.30671078699721 31.721940968584978 38.63167469898127
75 25 0 46.35219267746958 35.48817859832107 11.702585777641668
76 25 1 45.382420854120895 35.88006810833707 12.000585836198297
77 25 0 43.733416002721576 35.404523279605684 11.490638157646307
78 26 0 23.18654380256069 13.849306885591568 27.945573486645287
79 26 1 24.303112269323222 13.19298115860598 28.64105072688901
80 26 0 25.618165709210864 12.72115581454773 28.446223105042936
81 27 0 25.16621323927409 12.30342402657967 11.06731328238908
82 27 1 25.953455257059055 10.964706959690442 11.148679330049259
83 27 0 24.633730568297967 10.9247549392498 13.85652159835899
84 28 0 11.080932251522993 24.353892043718485 25.088610862474994
85 28 1 9.127038673975626 26.097928768808874 27.35320710025756
86 28 0 10.664133745605843 25.86926024685362 27.03323296109408
87 29 0 30.586673207733394 34.01283592173596 17.44620982740308
88 29 1 31.684587334141774 35.22995044922325 16.234665950986642
89 29 0 31.783454897739375 33.70876986699828 16.43255603826235
90 30 0 48.1242474894194 15.993016702901611 43.692453237747564
91 30 1 48.06838900839355 14.812261595845767 44.98256374419106
92 30 0 47.982120738684834 16.15745902037268 44.47270510384301
93 31 0 28.2639223964478 4.028288239115621 16.694786157010927
94 31 1 29.364425531640965 4.072613338409132 17.62894288626205
95 31 0 29.10668485738731 6.1118756340417715 18.215211278618316
96 32 0 9.846483078767475 38.79654116065029 10.444131658261162
97 32 1 8.78607096183804 39.02960679540512 9.711212713544317
98 32 0 9.532214296516244 37.61863931955136 9.376691722760064
99 33 0 43.54590429156283 38.3553119697235 21.283581100529034
100 33 1 43.33296056030452 37.479987915160265 20.004912412068194
101 33 0 42.13736643233348 36.04369281686631 21.349345748378365
102 34 0 1.3903754132153143 33.48444911200848 11.400741334550574
103 34 1 1.077823432873852 34.792056385109845 10.297958533332896
104 34 0 1.1074113783619364 33.45934958576644 11.271735809987737
105 35 0 34.956889232025915 23.91826723282625 39.50486396621341
106 35 1 35.76976383961807 23.500832882412944 40.986433402082554
107 35 0 34.83976383245383 22.957168018052414 39.14659071765216
108 36 0 35.99424141687689 44.918137376504575 45.17218449777801
109 36 1 36.93463918167535 46.44462319800979 45.897101024874324
110 36 0 35.94503244165069 45.8435661685392 43.89121416930864
111 37 0 17.12263443135459 22.30524727237473 30.651079691721904
112 37 1 15.100586850500687 20.47851017934088 29.415357350760313
113 37 0 14.653620266456986 20.03960426044992 27.963173559167572
114 38 0 10.670015231402768 31.381851086275166 22.620285723714474
115 38 1 10.613401464818976 29.977053152481083 19.90914179431072
116 38 0 10.102135601878713 31.798853997604976 20.010732640812414
117 39 0 24.158112348146766 31.91943741863325 15.803594846441062
118 39 1 25.507637416380447 32.299320920233015 14.845870794169063
119 39 0 22.30376058477344 32.131944331989814 12.702910693106638
120 40 0 21.609232646884536 43.233296551401835 24.43414386548827
121 40 1 22.867452636234706 42.86536503734026 24.341786111102213
122 40 0 23.60564545125331 41.70469108895973 25.372885426394582
123 41 0 34.17519738747728 26.066651475729174 10.021781928256663
124 41 1 32.20781410225854 29.42515191981618 11.411035542387433
125 41 0 33.309321194361196 26.029831082555113 11.060316683215452
126 42 0 23.51046994082082 45.88742879554242 30.977333392995504
127 42 1 23.72500086672806 47.05444322603525 30.223819481067913
128 42 0 24.950848171584656 47.10260398527255 30.84500299617441
129 43 0 7.250752430593142 20.875842371517372 17.699409043856072
130 43 1 6.206681958159242 20.53255323339691 16.118151685825595
131 43 0 7.580200704810563 19.678246759858556 17.22361144504005
132 44 0 9.881221312221632 21.08074125666314 41.972194311279594
133 44 1 9.492484117791356 21.382995914780807 43.85215192836582
134 44 0 9.177653923651025 22.892602147850624 44.12018039942747
135 45 0 29.428437513001775 4.668716689584591 2.4510165871193994
136 45 1 30.023942344653907 4.023529942402082 1.5668043224368056
137 45 0 29.834055998163688 5.63530543043568 1.5618120600833325
138 46 0 3.639578273956828 8.85068769375822 28.07417293219134
139 46 1 3.3391466624808532 9.141438748372753 29.572058543946472
140 46 0 3.8155301083180433 11.928264109211941 30.53924547296481
141 47 0 42.04299613062022 8.316000654693493 38.80786387301871
142 47 1 44.30042408901693 6.332514457762389 38.60634175404
143 47 0 42.99940761138423 6.170135085298997 38.21308002169304
144 48 0 4.629095085045912 18.58438068550355 5.150157644204469
145 48 1 4.2495827539064175 17.68058535640834 3.9227841109318713
146 48 0 5.866237696825841 17.757050250622925 4.560834254151335
147 49 0 16.333704682434625 21.653650757364897 37.73997280501478
148 49 1 15.383314654877 20.699097233305263 39.192625979521154
149 49 0 16.751808255403805 21.79283174803184 39.691195343717006
150 50 0 8.570152051711263 46.81465159107834 12.797955508918292
151 50 1 8.082678553212773 45.94264454804461 13.263317416418593
152 50 0 9.772394263161305 44.96009579055831 14.352632067503983
153 51 0 20.69505549181431 34.25892129482411 12.767981169144472
154 51 1 19.372677490798683 35.268123549380434 12.45743105834529
155 51 0 18.331157411590628 34.45988143913189 12.620240419427791
156 52 0 46.559694495871156 29.771735437219544 41.03278725351303
157 52 1 46.84753280811974 30.9342020317181 41.97349514300071
158 52 0 46.91629609806499 31.905021051022672 41.32081088467555
159 53 0 8.440466030237891 17.501190710585597 10.006778188134605
160 53 1 6.863701003901956 16.10216717705289 9.606488342950675
161 53 0 7.388259997290145 15.279974683322594 10.738472634081711
162 54 0 16.102132395276147 32.16015885237824 31.504628869255725
163 54 1 15.732865104253225 31.187076934538197 30.35878842081031
164 54 0 15.359879201517268 26.44999354368709 30.78965275998768
165 55 0 11.673359506301594 26.379983563390155 17.67353021258602
166 55 1 11.1734219628232 27.40591889820564 17.823067670576
167 55 0 11.843997097304364 27.1338769659468 19.023912938286678
168 56 0 6.382602429148695 15.699346195298423 24.146214399992903
169 56 1 5.865534520217114 14.20436140755467 23.318214461198195
170 56 0 5.651770858192191 14.113480178407809 24.473461065281384
171 57 0 14.782235966264826 15.78269730154236 34.25116355589504
172 57 1 14.167777262212057 14.125671303509204 34.320390148972024
173 57 0 15.176657188146244 15.379824990307982 33.135339855329654
174 58 0 14.052640639552717 28.761847421069948 43.88546920243205
175 58 1 13.763463292147119 28.93730487739727 46.458204678242645
176 58 0 12.05902214689896 28.186635456380415 44.30990625383083
177 59 0 18.158597266446808 15.11988808517096 30.776476129871657
178 59 1 13.921771839045595 10.410984727181338 29.68141211978567
179 59 0 14.326431008132163 10.81199169788056 30.70317742736297
180 60 0 25.71832839800793 45.451270275356215 5.899804604941868
181 60 1 26.752350871848716 45.26753974870413 5.542709027031059
182 60 0 23.032058029465198 40.728999795664976 11.052746899851035
183 61 0 18.26355105521402 19.24638798739599 37.363702810724874
184 61 1 15.580139281685828 17.343137718085963 35.94746531219761
185 61 0 14.978912785000471 17.796153041679208 34.654881847811296
186 62 0 10.339274922099412 48.06859387047869 41.45365646969365
187 62 1 9.031886641366551 48.13379182249008 41.985556000247946
188 62 0 9.883904075493785 47.35018404202641 41.07626916165401
189 63 0 44.79770134599545 7.62309232000839 12.75782776285448
190 63 1 44.57399818153775 6.396117841211865 11.208672897346384
191 63 0 43.47002358073575 7.9673841616714824 11.136880555345511
192 64 0 36.511852484189866 13.522400370401337 30.25854304490629
193 64 1 41.17217308222504 10.488466116574541 31.39627069376506
194 64 0 40.719229207830374 9.347898648658212 31.976511843067758
195 65 0 5.560462305401339 40.66766801993534 33.299432701898226
196 65 1 5.412255775679207 42.22868263168563 34.56913890052692
197 65 0 6.334240711072425 41.21578586033297 34.239735297601385
198 66 0 21.96516337304595 21.95741387692918 45.56746896467537
199 66 1 22.27867851274347 20.481099531589997 46.61006452648315
200 66 0 21.3355263828143 19.88961445501552 45.89061775538484
201 67 0 16.657581730360917 5.208202255429313 12.37915344506514
202 67 1 17.45494892492484 3.053882523425658 10.318631846333687
203 67 0 17.326643951283764 5.026950695456018 12.161662865648193
204 68 0 24.242973657835645 35.32380598403247 42.02100098811096
205 68 1 25.02404410240993 38.812781317394055 47.72201607563455
206 68 0 23.205301962841496 36.92712700407969 42.33761413014373
207 69 0 46.12113632959012 41.73084312252333 37.358880946599236
208 69 1 46.17949999259232 42.770936175244955 36.760381130786946
209 69 0 41.35392272144137 43.65522689895234 36.21350159400609
210 70 0 22.966723023858513 35.07819018844777 45.438855574642716
211 70 1 23.975749536001743 35.807177766063084 46.141041454508546
212 70 0 23.26029123018367 34.4063460417798 45.43708009094987
213 71 0 46.33204397309708 22.942881502656686 22.208327955910285
214 71 1 46.525696248077146 21.961757888828522 20.929163187509545
215 71 0 44.80197850598004 22.3868451866183 21.303548647557008
216 72 0 31.312779647616896 10.967114079073552 11.132178135823398
217 72 1 30.51717407850253 11.218990177910674 10.099471467075698
218 72 0 31.330277769950683 10.523279460360197 10.868098265902997
219 73 0 19.374307021109836 39.96199464892147 10.637215214113036
220 73 1 19.95793658215605 40.59241117631457 8.936330390406079
221 73 0 19.66779668840148 39.32388694916033 9.309183212086555
222 74 0 23.688672646883017 31.800564983220816 8.917720695644114
223 74 1 23.157041863666258 32.36098698593184 7.570356632551322
224 74 0 24.990683099030356 30.12710657174886 5.6695570382898905
225 75 0 8.624790530590772 17.45017703573985 18.961967277968792
226 75 1 7.597600975307241 19.459897304006557 20.97108490431894
227 75 0 7.8920860566489734 18.59669309223764 22.155111704930594
228 76 0 33.96555287387853 16.728273155469363 31.16585810319779
229 76 1 35.41231587731417 12.432556518274787 34.140892433351226
230 76 0 35.24918959742031 15.84665590190626 30.79130905782781
231 77 0 12.07893592024021 4.5984894130767096 24.42596769461516
232 77 1 11.83901412152716 3.234541159518919 24.71316539327454
233 77 0 13.301525336809448 3.8160358086323303 24.081857446296343
234 78 0 5.704482769709683 11.791439251173138 5.313715980844855
235 78 1 5.9640804972203405 12.825753375799291 4.657615683319664
236 78 0 5.794658025380688 14.47777521544267 4.807550426233752
237 79 0 10.580503317011907 13.294214562618357 22.50021920115499
238 79 1 9.74584767732851 11.912562209683331 22.625911688647943
239 79 0 10.664999524280915 12.023540161076083 23.701125848185754
240 80 0 43.642315608651316 23.502859642819 39.60020043773599
241 80 1 43.86052979434347 22.65813899254278 41.320910683614876
242 80 0 43.38774005421813 24.057214136003413 41.45781919226592
243 81 0 18.68614171386582 15.019438952783473 24.01602396856092
244 81 1 18.50044710630862 14.141490597201877 24.749453361126154
245 81 0 17.415380604531993 15.475634581296491 25.00100745628782
246 82 0 42.121558913842286 1.3754635723950666 9.22620898535213
247 82 1 43.377444445093424 1.2671591640300766 9.680965478726943
248 82 0 39.13356780666114 2.2436610892187714 9.01915397042682
249 83 0 20.007853922915775 27.0510038984666 38.10288767926092
250 83 1 20.682493490286795 25.778864031332038 36.49686523794512
251 83 0 24.97528613119055 28.74802120771029 31.872620936726385
252 84 0 19.543609915994377 36.05674618314791 16.0986718358854
253 84 1 22.500574223377953 35.5750823975895 9.802672870595671
254 84 0 19.746595352330267 36.65052362506674 17.38984675895763
255 85 0 45.67423140926033 39.14546485670171 30.849767101856933
256 85 1 44.90808247520068 38.042971553956505 31.513354026888837
257 85 0 43.76279357116781 36.88845973801315 30.576774082751484
258 86 0 26.051399703956548 35.710847062308666 40.25491331576569
259 86 1 24.90902039479297 36.68681910718504 41.16090328233184
260 86 0 23.654487875279226 35.897582880576564 41.352134983190126
261 87 0 30.436989276710037 13.161013910046668 4.387963429778452
262 87 1 16.264978043363822 5.336161994253768 19.55941693833515
263 87 0 15.288856663712311 6.478294235743233 19.67066711823841
264 88 0 41.17202766071948 24.50807324076616 14.424158513347061
265 88 1 43.22660565541725 20.69153435150302 13.50137133623291
266 88 0 41.95841282071762 20.30106186706358 12.664220561428422
267 89 0 39.98546316156345 33.561997318933095 44.3960137188071
268 89 1 39.41804732054522 34.77111923972109 45.65037694805954
269 89 0 38.07899120942698 35.52319773792738 45.412077007722054
270 90 0 20.843970011444537 24.2067900160985 37.14586500434424
271 90 1 41.42005231817503 11.732436197966889 10.170165271575625
272 90 0 38.37002927835703 8.540906411626755 13.190873938956784
273 91 0 18.010580381813078 7.285394826439391 8.062851613971171
274 91 1 17.812615118285755 6.128164559728184 8.781720868290716
275 91 0 19.972009845673114 6.40613407679329 9.435696297216026
276 92 0 12.655677683488781 31.14102158452691 31.15984759030866
277 92 1 10.599927533683372 33.11428818166257 31.89359409231817
278 92 0 11.894879660339168 32.94082540948754 32.61236943803353
279 93 0 19.87247121934613 9.929667739863225 10.216099096756194
280 93 1 20.995597299095806 9.772673572972908 9.058885391798707
281 93 0 22.01959508257679 10.371904143688653 10.477965428488126
282 94 0 27.159745338446136 41.92279575726232 37.685561471607066
283 94 1 25.470927762884717 42.70952938363539 37.030408575374516
284 94 0 23.907814117306163 42.38994754562828 37.46227769876872
285 95 0 11.732117178958449 16.72801931919113 43.14520030210867
286 95 1 10.632427667593294 17.264807298800793 44.04734533271151
287 95 0 12.095163592821887 17.230598439116676 42.94697428233003
288 96 0 16.14706095981155 42.43988166602104 22.675911970966325
289 96 1 15.380872112734828 40.85386927245826 23.273748302485945
290 96 0 14.350405242428034 22.152539317712247 15.378453744244066
291 97 0 30.51481945389664 3.6858739135118 7.38006038244215
292 97 1 31.433108484003252 2.945371424322352 5.902292064251833
293 97 0 31.56032707855799 4.660701164758035 6.928145644041273
294 98 0 18.491264491725943 38.818546239214605 36.57007211724267
295 98 1 17.286865938134014 38.809397895899245 36.18113024288695
296 98 0 16.504825778440765 39.15408892456374 35.0979296809196
297 99 0 42.05636781830058 9.991414754388497 45.61770071970849
298 99 1 43.73142674019338 8.320689097954496 46.57544919996729
299 99 0 42.7926792697307 10.196909595485852 44.687963739287284
300 100 0 6.6330972286392775 40.10534973324084 40.936328850153004
301 100 1 5.155297516763171 40.93261690786095 42.03707239032605
302 100 0 4.936572296439845 39.92742927073405 40.64938502939469
303 101 0 44.57328954449198 31.149379223864102 30.509621104326598
304 101 1 48.07061281819497 39.11116629707736 42.51609682519497
305 101 0 46.27236405535709 30.871221362998163 32.15024883277006
306 102 0 27.410098986778436 23.912624483512694 43.20542680802378
307 102 1 26.59129656334826 24.696645560766587 43.96158202732072
308 102 0 26.589430191135275 25.97758794172758 43.485084567270896
309 103 0 39.263173238759364 6.528716101962771 17.058467616251743
310 103 1 40.675779225171375 5.21761771462692 17.47295136460092
311 103 0 39.24957986906897 5.771088428069969 18.338968229064808
312 104 0 2.5330588026218464 9.18575660293296 2.746010555815614
313 104 1 48.087477214255756 13.162605895750625 9.745963015123984
314 104 0 39.77111249451209 11.196768097765519 11.769544392846097
315 105 0 34.53026177344023 38.790330634481215 11.718156252073527
316 105 1 35.94985823721891 38.762057456205454 11.387124292447197
317 105 0 36.71502776658172 37.23672660166444 11.512043129431106
318 106 0 21.994720342257303 36.79130589165386 38.92378291243412
319 106 1 23.611624292824356 39.43439428239714 40.51432184748381
320 106 0 23.28882740737215 39.55381833448007 39.014325477170594
321 107 0 26.040036701825034 34.688599387214495 6.853535332179974
322 107 1 26.39293718181446 35.97173244164065 6.270521409321223
323 107 0 27.72549143380612 36.17864608538383 6.373831902300209
324 108 0 15.078308765909025 24.865829463218716 18.56758130184192
325 108 1 13.745884283775068 24.689400780561506 17.23872948603828
326 108 0 13.393058437889836 25.168920302153733 18.6821170984383
327 109 0 44.62560556409734 25.87409158917046 40.944363838266085
328 109 1 44.734377012837925 24.912038724490717 41.81610041733143
329 109 0 43.58323629504713 24.570620549280456 40.81857768412079
330 110 0 21.567183478795698 34.62429556071892 4.081770082939696
331 110 1 22.7495720172659 35.712641196482224 3.69332079027214
332 110 0 23.126452334581927 36.81205001442004 4.3186804854325676
